# vtk DataFile Version 3.0
3D Unstructured Surface
ASCII
DATASET UNSTRUCTURED_GRID
POINTS 8455 float
19.872605 32.094138 -27.318478
19.731492 32.188752 -27.412083
19.867440 32.048428 -27.513361
19.726137 32.157314 -27.643453
19.456865 30.617393 -30.039227
19.611749 30.751514 -30.101173
19.606998 30.545981 -30.044989
19.552767 32.432838 -28.321473
19.576034 32.345810 -28.117357
19.432598 32.521782 -28.136545
19.652171 32.382898 -28.472530
19.680729 32.279217 -28.308353
19.563516 32.767910 -28.891425
19.722047 32.590178 -28.882009
19.550733 32.642554 -28.709905
19.706058 32.755425 -29.033652
19.578264 32.875570 -29.024821
19.683324 32.929124 -29.162362
19.824205 32.986533 -29.287725
19.650098 33.107116 -29.265942
19.853127 33.169106 -29.394340
19.849394 33.340864 -29.459922
20.043992 33.279913 -29.481823
19.928259 33.518026 -29.523447
20.164790 33.522365 -29.538819
20.315281 33.326222 -29.516884
20.412964 33.542789 -29.531421
20.268367 33.724837 -29.547267
20.487229 33.769323 -29.518914
20.684845 33.856093 -29.463666
20.502749 33.967519 -29.498474
20.658891 34.044998 -29.446043
20.882760 34.030649 -29.364573
19.162043 31.330360 -25.272303
19.313444 31.318992 -25.460587
19.329782 31.486260 -25.309731
21.085409 34.480809 -29.107516
21.182518 34.292693 -29.114669
20.955848 34.295994 -29.257020
21.322431 34.598808 -28.833413
21.462618 34.552018 -28.675556
21.428231 34.406034 -28.823760
21.818213 34.244016 -27.752367
21.797961 34.287004 -28.010271
21.733957 34.477344 -27.825641
21.822740 33.929482 -27.202670
21.883239 33.859928 -27.397089
21.830460 34.073202 -27.393873
20.506135 30.914155 -28.593490
20.655159 30.797432 -28.478310
20.698100 30.874239 -28.664753
21.758118 33.999325 -26.981331
21.776550 34.147168 -27.188717
21.720837 34.208920 -26.960804
20.981114 32.829669 -26.029187
21.204157 32.909860 -26.114691
21.049795 33.029627 -25.973269
20.504630 32.173317 -26.553918
20.595740 32.293112 -26.387534
20.390098 32.297799 -26.419342
20.362703 32.103523 -26.720668
20.319484 32.209702 -26.564382
20.128494 32.202402 -26.687980
20.237169 32.059531 -26.882429
19.798902 32.072939 -27.903455
19.631010 32.252933 -27.914920
21.696203 34.522990 -28.059872
21.745872 34.332106 -28.235740
20.788195 32.455892 -26.225254
20.861220 32.630365 -26.105338
20.659624 32.530894 -26.156300
18.981214 30.448170 -26.327307
18.726201 30.401012 -26.294343
18.879653 30.335606 -26.464742
20.666753 32.400504 -26.271302
16.660036 30.532940 -29.073197
16.784881 30.718758 -29.177360
16.886052 30.506574 -29.119354
19.730656 32.173588 -28.132645
19.708749 32.449612 -28.687935
20.412699 30.243761 -28.652640
20.372922 30.249003 -28.861654
20.583354 30.364278 -28.765444
20.042501 33.048234 -29.402544
19.990888 37.046519 -28.869715
19.749466 37.139249 -28.929893
19.881750 37.223949 -28.794124
20.644270 36.810634 -28.321491
20.731215 36.617171 -28.370299
20.611754 36.685220 -28.515002
20.725950 36.458012 -28.533800
20.563160 36.532417 -28.717289
18.670837 31.759565 -27.557187
18.574354 31.820130 -27.746488
18.471472 31.921095 -27.570504
18.892988 31.752580 -26.908359
18.652771 31.905574 -26.897084
18.800888 31.866201 -26.689752
19.057697 31.679978 -26.851914
19.002145 31.753779 -26.697129
19.158967 31.660105 -26.746810
19.399461 31.718638 -26.173272
19.364724 31.658648 -26.429922
19.224733 31.763597 -26.315549
19.408003 31.798492 -25.781918
19.521568 31.623426 -25.725273
19.501925 31.690322 -25.967072
18.499456 30.054892 -26.787747
18.433173 30.148064 -26.597408
18.297809 30.000841 -26.808332
21.572028 34.365652 -28.644613
21.544645 34.206177 -28.799607
20.979926 32.446681 -26.258528
21.101792 32.676690 -26.159784
17.016648 29.936857 -28.809877
16.829975 30.058175 -28.849509
17.058798 30.121450 -28.967694
20.042492 30.153160 -29.449669
19.887408 30.031636 -29.287577
19.818994 30.059234 -29.510704
20.693819 33.616413 -29.490206
20.565518 33.356797 -29.514038
20.885579 33.793059 -29.410679
19.455814 31.512413 -25.527758
19.544689 31.451649 -25.705124
19.115774 30.789680 -25.905878
19.338594 30.778357 -26.040109
19.310775 30.929009 -25.851956
19.648842 30.242833 -29.882979
19.678786 30.102398 -29.720186
19.468384 30.178661 -29.838484
21.576842 34.495721 -28.520436
21.673139 34.356172 -28.443571
21.911450 34.019923 -27.958481
19.446511 33.269178 -29.229966
19.497145 33.050696 -29.103945
20.004001 31.982950 -27.361571
20.139001 31.948529 -27.217327
19.980802 32.062762 -27.178262
19.815656 32.235906 -28.530909
19.949189 32.071066 -28.466022
19.845557 32.104598 -28.314714
20.527637 33.111626 -25.733865
20.333120 33.068263 -25.738066
20.426368 32.926216 -25.841551
16.919954 30.886837 -29.265973
16.802668 31.141410 -29.317040
17.045185 31.060202 -29.345471
16.786886 31.357324 -29.374902
16.982070 31.282652 -29.390704
19.623687 31.508685 -25.882655
21.284797 34.068206 -29.126392
21.373399 34.233217 -28.979271
21.761238 34.214550 -28.381551
21.839185 34.138441 -28.212396
21.897370 33.978671 -27.633159
21.813893 34.205260 -27.536938
21.869583 33.712608 -27.233828
21.735701 33.608855 -26.785522
21.773981 33.345772 -26.845486
21.837744 33.526637 -27.053941
19.592627 31.581017 -30.071137
19.770379 31.550088 -30.117552
19.623799 31.334372 -30.129843
20.809889 32.315465 -26.352131
19.876198 32.434040 -28.874341
18.788320 31.708650 -27.361476
18.586640 31.859221 -27.326110
18.723692 31.804450 -27.112829
19.062989 31.627796 -27.026619
19.235044 31.567003 -26.930448
19.715054 31.726075 -30.036035
19.864936 32.602359 -29.030379
19.525293 31.599533 -26.333715
19.614591 31.571288 -26.121796
19.856923 32.794311 -29.180480
20.254861 33.101821 -29.464496
21.480089 34.037582 -28.967544
21.988971 33.782597 -27.816000
21.345254 32.730960 -26.283172
20.735971 32.167607 -26.520849
20.971983 32.256477 -26.415356
19.885235 31.923425 -29.672602
20.052459 31.753851 -29.665507
19.871563 31.850197 -29.889388
16.989084 30.313503 -29.057464
17.179890 30.269356 -29.093603
17.048197 30.694886 -29.234602
20.115071 30.989389 -28.158420
20.145763 30.984571 -28.390244
19.966423 31.045932 -28.326400
18.668265 30.138948 -26.707177
18.660945 30.030705 -26.892758
19.333085 31.591668 -26.691138
19.550684 31.527662 -26.529911
20.587679 30.979110 -28.814001
20.681418 31.006125 -29.016831
20.452794 31.104124 -29.004012
18.932926 31.665739 -27.153988
20.710669 30.492583 -28.561875
20.537257 30.319734 -28.518245
19.099231 31.519188 -24.953425
19.020921 31.369148 -25.078941
19.205579 31.483675 -25.126729
19.896192 31.989348 -27.705317
19.899967 32.293022 -28.737106
18.767925 30.986648 -25.425503
18.945466 31.067075 -25.433136
18.775075 31.097877 -25.267941
20.013503 32.851676 -29.295428
20.463844 33.146283 -29.492824
21.037264 33.911974 -29.324434
21.099171 33.733269 -29.339487
21.642509 34.002585 -28.801851
21.684200 34.170625 -28.610642
18.480402 29.938362 -26.991671
20.504202 30.361051 -29.045944
21.961355 33.714507 -27.572821
20.247308 30.251337 -29.326517
20.102991 30.144947 -29.211565
20.441691 31.967653 -26.900769
20.658928 31.892261 -26.890660
20.839626 31.845695 -26.873682
20.792588 31.985503 -26.728409
19.888206 32.005933 -28.113240
20.043555 32.652511 -29.185577
19.726477 30.406818 -29.980804
19.490929 30.407745 -29.976420
20.222408 32.895494 -29.386428
20.221535 32.707247 -29.296250
13.655425 32.279332 -29.195264
13.765476 32.306529 -29.024233
13.650030 32.115509 -29.007658
17.239810 30.992482 -29.373585
17.097245 30.879977 -29.306467
20.837640 33.361211 -29.475589
20.712535 33.148554 -29.491103
21.298514 33.697604 -29.241763
21.196013 33.898456 -29.243393
17.648357 30.758725 -25.123057
17.538955 30.837657 -24.939572
17.471920 30.677475 -25.172062
21.930639 33.644939 -27.398422
21.560190 33.411489 -26.395368
21.524545 33.157943 -26.368284
21.665487 33.300200 -26.595190
20.587858 32.043099 -26.716091
19.523536 31.042967 -30.109863
19.733018 31.141310 -30.163711
20.081914 31.689996 -29.941967
19.899297 31.695483 -30.039757
19.971474 31.908631 -27.928544
20.975280 33.575927 -29.417910
21.936227 33.922928 -28.217096
21.914031 33.511732 -27.270390
21.879630 33.305017 -27.101912
21.137666 32.339187 -26.378694
20.278880 31.939656 -27.074120
20.488761 31.819325 -27.107543
18.870667 30.229908 -26.634434
18.876467 30.084474 -26.884429
20.001315 31.956067 -28.314198
21.197529 33.534512 -29.334266
21.841152 34.028207 -28.413067
21.487832 32.930132 -26.361032
21.368997 33.104553 -26.192538
20.054215 31.860003 -28.143415
14.441490 30.557636 -25.889552
14.442131 30.359563 -25.705913
14.308875 30.325408 -25.906157
19.891903 30.148595 -29.657896
19.997539 32.135163 -28.643801
20.086988 32.253867 -28.877395
17.117781 30.469951 -29.168330
17.311948 30.391508 -29.193521
17.257816 30.592414 -29.256103
20.383526 32.968389 -29.447131
17.845201 31.242353 -23.872872
18.094376 31.386795 -23.885264
18.036957 31.196035 -24.029888
17.150989 31.393056 -29.451876
17.355582 31.357186 -29.487765
17.202926 31.212760 -29.420285
21.078629 33.346136 -29.412507
21.998896 33.799033 -28.032531
22.038765 33.565240 -27.738704
21.987908 33.487550 -27.483772
21.437214 32.532954 -26.439103
21.222175 32.495471 -26.314105
21.305460 32.332833 -26.459700
14.462239 33.751392 -29.516784
14.649382 33.882658 -29.348329
14.532896 33.691335 -29.319525
17.380968 30.207603 -29.127942
17.265318 30.108473 -29.029715
20.163795 31.750434 -27.963277
20.037023 32.456812 -29.030427
20.415041 32.797246 -29.394343
18.996091 33.980483 -23.489638
18.936608 33.759278 -23.468083
18.842961 33.950763 -23.376081
21.569032 33.821964 -28.982876
22.055407 33.243218 -27.554257
21.974274 33.284137 -27.342711
20.738198 30.507370 -29.002799
16.272427 31.234233 -23.421464
16.335576 31.397812 -23.484464
16.408618 31.353872 -23.310604
20.569986 32.958271 -29.466291
20.937497 33.141918 -29.462201
21.541702 32.733048 -26.470032
21.588679 32.886309 -26.497898
21.278428 31.546684 -28.893980
21.423637 31.406481 -28.817204
21.218260 31.414731 -28.708203
20.771654 31.741359 -27.037661
20.313675 31.838360 -27.238838
20.182233 31.839044 -27.423302
20.413996 31.706229 -27.397192
[...]
POINT_DATA 8455
VECTORS Displacement float
-0.112605 -0.013738 0.013578
-0.108492 -0.011352 0.009583
-0.108740 -0.014428 0.014961
-0.103137 -0.012214 0.011153
-0.007465 0.041507 0.042227
-0.008649 0.035786 0.033673
-0.008698 0.040919 0.038089
-0.072667 -0.006638 0.010173
-0.082734 -0.008810 0.009257
-0.075798 -0.005282 0.006545
-0.068471 -0.007098 0.012930
-0.077529 -0.009517 0.012453
-0.039816 0.002990 0.017925
-0.046547 -0.001378 0.018309
-0.051033 -0.000654 0.014605
-0.035658 0.002775 0.021052
-0.031164 0.005930 0.020921
-0.025224 0.006976 0.024262
-0.020505 0.007367 0.027825
-0.015498 0.010984 0.027842
-0.012327 0.010394 0.031740
-0.005894 0.012936 0.035122
-0.010492 0.009887 0.035723
-0.002059 0.013874 0.039247
-0.007390 0.010735 0.040619
-0.014481 0.006978 0.039184
-0.013664 0.007311 0.042821
-0.007567 0.010263 0.044567
-0.014029 0.006977 0.046514
-0.020145 0.003807 0.048966
-0.014049 0.006481 0.049574
-0.019491 0.003602 0.051343
-0.026960 0.000051 0.052073
-0.103643 0.046040 -0.031597
-0.110844 0.042908 -0.025513
-0.113182 0.039940 -0.032469
-0.038809 -0.008109 0.056516
-0.039318 -0.007193 0.055269
-0.031648 -0.003394 0.054920
-0.049531 -0.014508 0.057413
-0.054118 -0.016718 0.056956
-0.049731 -0.013434 0.056160
-0.071213 -0.024916 0.048267
-0.066961 -0.022904 0.051471
-0.071357 -0.025644 0.051241
-0.078140 -0.027782 0.035570
-0.074339 -0.026628 0.038889
-0.076060 -0.026902 0.040873
-0.064135 0.005745 0.021290
-0.064959 0.005468 0.022710
-0.058500 0.003861 0.024553
-0.081618 -0.028725 0.031031
-0.079550 -0.028168 0.037417
-0.082537 -0.029120 0.032604
-0.094414 -0.026269 0.001887
-0.090257 -0.029160 0.005491
-0.091895 -0.025927 -0.001731
-0.112330 -0.023617 0.018518
-0.108940 -0.024212 0.014934
-0.113198 -0.019599 0.011142
-0.115503 -0.021523 0.019368
-0.115584 -0.019102 0.013882
-0.117794 -0.015002 0.011180
-0.116969 -0.019531 0.019229
-0.096602 -0.013539 0.014255
-0.092310 -0.010633 0.009620
-0.067403 -0.023890 0.053872
-0.063072 -0.020906 0.053540
-0.102295 -0.026192 0.011254
-0.098620 -0.025865 0.005938
-0.104024 -0.022994 0.006200
-0.068414 0.059230 -0.003693
-0.055501 0.063888 -0.000957
-0.058453 0.061894 0.000842
-0.105853 -0.024504 0.011602
0.052664 0.066160 0.067697
0.045919 0.063042 0.069660
0.046848 0.068026 0.075654
-0.086556 -0.011688 0.012945
-0.058149 -0.005012 0.015635
-0.052299 0.031139 0.015240
-0.045822 0.032897 0.017554
-0.049154 0.023222 0.017244
-0.018001 0.006566 0.032144
-0.052188 -0.043719 0.065515
-0.046166 -0.047849 0.069893
-0.052850 -0.049249 0.065524
-0.072670 -0.040234 0.049391
-0.071515 -0.037471 0.050399
-0.067654 -0.037120 0.053702
-0.067050 -0.034212 0.054100
-0.061660 -0.033317 0.057889
-0.090237 0.021435 0.000887
-0.082954 0.020170 0.002888
-0.083172 0.021305 -0.000596
-0.108688 0.026320 -0.006641
-0.099971 0.026826 -0.009616
-0.107388 0.028699 -0.011648
-0.114397 0.025822 -0.005186
-0.114445 0.027721 -0.008771
-0.118367 0.025795 -0.005290
-0.126861 0.027262 -0.013128
-0.125524 0.025652 -0.007578
-0.123033 0.028903 -0.013251
-0.125503 0.030208 -0.024482
-0.125268 0.030474 -0.020927
-0.127625 0.027378 -0.015928
-0.027756 0.068608 0.018047
-0.030073 0.068836 0.013608
-0.017109 0.070959 0.022832
-0.054528 -0.016052 0.055513
-0.050345 -0.013177 0.054507
-0.097526 -0.029081 0.014128
-0.093192 -0.029190 0.008984
0.049652 0.079143 0.080977
0.053525 0.075925 0.075209
0.047602 0.076650 0.083794
-0.025792 0.042540 0.027369
-0.027708 0.048864 0.030377
-0.021394 0.048766 0.034404
-0.021019 0.003387 0.046106
-0.019718 0.003803 0.042338
-0.026379 0.000641 0.049379
-0.119914 0.035687 -0.025442
-0.122089 0.032751 -0.018276
-0.088774 0.053620 -0.012322
-0.095994 0.047243 -0.009991
-0.100675 0.046891 -0.013044
-0.011542 0.047267 0.040879
-0.014886 0.049802 0.040186
-0.009184 0.051839 0.047784
-0.057842 -0.018521 0.056136
-0.059039 -0.018672 0.054771
-0.065750 -0.022523 0.048381
-0.008411 0.015422 0.029766
-0.021245 0.010404 0.023945
-0.112801 -0.016550 0.018271
-0.114901 -0.018829 0.021127
-0.115502 -0.015262 0.015662
-0.069456 -0.009606 0.016009
-0.074489 -0.012466 0.018322
-0.080557 -0.012298 0.015914
-0.093537 -0.012826 -0.020335
-0.094320 -0.007763 -0.024734
-0.098168 -0.012316 -0.015949
0.038346 0.059663 0.069973
0.037232 0.054090 0.062640
0.030515 0.055698 0.068171
0.034114 0.049676 0.058302
0.028330 0.051048 0.062304
-0.125787 0.027415 -0.013245
-0.039997 -0.006906 0.053392
-0.044899 -0.010017 0.054871
-0.059638 -0.018850 0.053251
-0.062285 -0.020441 0.051596
-0.071170 -0.025071 0.043959
-0.074593 -0.026360 0.044738
-0.075883 -0.027708 0.034528
-0.082001 -0.029755 0.023322
-0.078981 -0.030472 0.024786
-0.077244 -0.029037 0.029741
-0.016527 0.020483 0.019237
-0.014679 0.018912 0.015452
-0.012899 0.023728 0.021643
-0.103189 -0.027765 0.016931
-0.051098 -0.005040 0.019741
-0.097920 0.022750 -0.000924
-0.091940 0.023079 -0.003390
-0.100192 0.024850 -0.005371
-0.111889 0.024204 -0.002381
-0.117444 0.023197 -0.001052
-0.017954 0.017125 0.015535
-0.040836 -0.001159 0.021879
-0.127893 0.023367 -0.006085
-0.128191 0.023812 -0.008604
-0.030023 0.003189 0.024880
-0.018461 0.005079 0.035896
-0.045689 -0.010282 0.053244
-0.065771 -0.023497 0.044600
-0.087454 -0.031460 0.013072
-0.106371 -0.027907 0.021949
-0.098783 -0.030177 0.020656
-0.028235 0.008775 0.013502
-0.027659 0.007649 0.012407
-0.021763 0.012303 0.013288
0.047116 0.072597 0.080864
0.042610 0.074044 0.086103
0.038403 0.064114 0.076502
-0.084771 0.008111 0.016220
-0.075663 0.009229 0.017044
-0.079123 0.010668 0.015800
-0.039065 0.066152 0.011777
-0.032745 0.066695 0.017358
-0.122685 0.023832 -0.003062
-0.126784 0.021038 -0.001589
-0.055079 0.004190 0.022601
-0.046418 0.003875 0.023931
-0.049094 0.004876 0.019012
-0.106126 0.023961 -0.002312
-0.056269 0.014617 0.018675
-0.056857 0.024466 0.014645
-0.099331 0.042012 -0.043475
-0.095821 0.046652 -0.037359
-0.106079 0.042125 -0.038171
-0.104092 -0.015148 0.016617
-0.059667 -0.008122 0.018706
-0.078725 0.056852 -0.022897
-0.089366 0.053825 -0.023964
-0.080775 0.054523 -0.027659
-0.025803 0.003324 0.028728
-0.020744 0.003117 0.039324
-0.031264 -0.001974 0.051334
-0.032371 -0.002769 0.049887
-0.050109 -0.013185 0.052751
-0.054800 -0.015925 0.053742
-0.020802 0.069238 0.024471
-0.040302 0.026649 0.018644
-0.069555 -0.025407 0.040721
-0.030808 0.036063 0.022117
-0.032991 0.042253 0.024265
-0.113791 -0.024253 0.025169
-0.108528 -0.027961 0.029460
-0.102826 -0.029995 0.031682
-0.104988 -0.029603 0.028409
-0.089806 -0.014133 0.016740
-0.034555 -0.000811 0.026477
-0.010877 0.042182 0.036204
-0.007929 0.046255 0.044720
-0.024208 0.002306 0.033028
-0.030735 -0.000947 0.030850
0.191375 -0.040132 0.042964
0.188924 -0.035329 0.035533
0.195770 -0.033309 0.033058
0.025490 0.056618 0.071785
0.032755 0.059723 0.073167
-0.026140 -0.000111 0.045289
-0.025235 -0.000054 0.042703
-0.037514 -0.006004 0.050363
-0.035913 -0.004556 0.051693
-0.019257 0.051675 -0.017043
-0.016355 0.047243 -0.021028
-0.010920 0.051725 -0.014438
-0.072139 -0.026739 0.037322
-0.085390 -0.030389 0.012268
-0.084745 -0.031243 0.012584
-0.082287 -0.031100 0.018390
-0.110858 -0.026399 0.024691
-0.010336 0.030233 0.030363
-0.010518 0.025690 0.021511
-0.019114 0.011304 0.011467
-0.017097 0.014917 0.012757
-0.097374 -0.015831 0.018844
-0.028880 -0.001127 0.047910
-0.060427 -0.020128 0.049596
-0.073131 -0.027832 0.034290
-0.074030 -0.029417 0.030712
-0.093366 -0.031187 0.019394
-0.115280 -0.021356 0.023520
-0.111161 -0.025225 0.028943
-0.052267 0.062692 0.005234
-0.044167 0.063426 0.011629
-0.081915 -0.014367 0.019298
-0.034429 -0.004712 0.048966
-0.057952 -0.018207 0.051667
-0.084532 -0.031832 0.013932
-0.087397 -0.030153 0.007138
-0.089315 -0.015903 0.020615
0.105710 0.041264 -0.082148
0.087269 0.037537 -0.067987
0.094725 0.036492 -0.061643
-0.019203 0.045005 0.032696
-0.065939 -0.011163 0.019801
-0.054188 -0.008967 0.022895
0.040919 0.069449 0.082130
0.036852 0.071192 0.086621
0.034284 0.066386 0.082003
-0.023326 0.001811 0.036531
-0.021601 0.020847 -0.031928
-0.029676 0.021305 -0.037836
-0.028557 0.025265 -0.032212
0.020311 0.048144 0.061076
0.013718 0.047614 0.062465
0.021874 0.051740 0.065785
-0.031629 -0.003736 0.047307
-0.062196 -0.021733 0.047031
-0.064565 -0.024240 0.042004
-0.068608 -0.026350 0.037972
-0.084414 -0.032354 0.019303
-0.090675 -0.031271 0.016105
-0.087960 -0.032133 0.021700
0.123461 -0.046692 0.062584
0.112218 -0.037258 0.060329
0.123304 -0.041135 0.058825
0.038032 0.075197 0.089842
0.042382 0.077327 0.088715
-0.095795 -0.017734 0.023377
-0.044523 -0.004812 0.023827
-0.027941 -0.001046 0.035543
-0.026491 0.019717 -0.078862
-0.030408 0.018822 -0.076517
-0.023561 0.019137 -0.080319
-0.045532 -0.010764 0.051576
-0.064107 -0.026218 0.038257
-0.068974 -0.027837 0.035211
-0.041298 0.016330 0.020599
0.018973 0.013867 -0.047336
0.020024 0.014688 -0.052936
0.015582 0.010328 -0.043696
-0.025686 -0.000371 0.039491
-0.029497 -0.003118 0.045301
-0.082202 -0.032448 0.018532
-0.081679 -0.032309 0.018198
-0.047328 -0.015584 0.052380
-0.046437 -0.015081 0.053304
-0.052760 -0.016131 0.049703
-0.103754 -0.028859 0.032961
-0.112775 -0.022160 0.026038
-0.111033 -0.019744 0.023702
-0.108196 -0.023129 0.028992
-0.024753 0.035657 0.023266
-0.124236 0.018682 0.002244
-0.085858 -0.017124 0.024438
-0.029322 -0.003552 0.042741
-0.038880 -0.007956 0.049558
-0.042136 -0.009292 0.050524
-0.078168 -0.031719 0.023422
-0.073935 -0.031559 0.027620
-0.074299 -0.030734 0.028487
-0.010172 0.036757 0.030771
-0.078507 -0.032367 0.022415
-0.092122 -0.031922 0.024437
-0.098982 -0.031103 0.026990
-0.120213 0.031609 -0.012875
-0.124326 0.024639 -0.007534
0.055944 0.005075 0.039717
0.058209 0.004418 0.040760
0.057335 0.007006 0.039421
-0.081494 -0.015574 0.021950
-0.062451 -0.013144 0.024667
-0.033864 -0.006304 0.047497
-0.035993 -0.006921 0.048523
-0.042369 -0.010867 0.049674
-0.049197 -0.013594 0.051034
-0.045753 -0.012109 0.050347
0.029964 0.067551 0.085343
0.013752 0.044840 0.058554
0.007061 0.043324 0.058392
0.012637 0.029299 0.038011
0.005665 0.028023 0.037031
0.005015 0.030578 0.041759
-0.063290 -0.024978 0.040232
-0.060041 -0.023342 0.042618
-0.074088 -0.031949 0.027216
0.012665 0.048630 -0.156202
0.011534 0.051140 -0.148164
0.006282 0.042390 -0.151473
-0.002850 0.052563 0.059840
-0.004963 0.052529 0.054546
-0.001600 0.059331 0.062510
-0.014135 0.016146 0.011783
-0.081088 -0.032402 0.024679
-0.085126 -0.032267 0.026843
-0.097537 -0.031322 0.031461
-0.072493 -0.014133 0.021991
-0.028245 0.029807 -0.026539
-0.035602 0.034100 -0.025307
-0.026664 0.033480 -0.021080
-0.031466 -0.004832 0.039710
-0.034910 -0.005194 0.034105
0.008479 0.048091 -0.050433
0.015676 0.054748 -0.065318
0.022665 0.055193 -0.054176
-0.097900 0.040007 -0.006916
-0.103144 0.038950 -0.007909
-0.092884 0.046368 -0.007967
-0.031372 0.066067 0.019985
-0.000879 0.028753 0.040209
-0.000849 0.030758 0.043506
-0.016521 0.059042 -0.006783
-0.015083 0.062391 -0.001487
-0.025751 0.061420 -0.007087
0.013093 0.014227 -0.042045
0.007912 0.012079 -0.037236
0.008583 0.016496 -0.037842
-0.061006 -0.022429 0.044739
-0.069618 -0.030266 0.031707
-0.069889 -0.029307 0.032836
-0.078648 -0.032493 0.023484
-0.112200 0.031034 -0.006403
-0.107299 0.038962 -0.009798
-0.042030 0.062946 0.014248
-0.049905 0.011641 0.021573
-0.057855 0.006896 0.023387
-0.101967 -0.022044 0.029883
-0.105762 -0.020730 0.026659
-0.104190 -0.018045 0.022292
-0.100235 -0.019721 0.026536
-0.091967 -0.018838 0.027094
-0.081245 -0.017987 0.028552
-0.046128 -0.007743 0.026763
-0.051410 -0.011252 0.028358
-0.039144 -0.004962 0.028610
-0.032747 -0.006525 0.046159
-0.039229 -0.009724 0.049078
-0.064761 -0.027598 0.036334
-0.087108 -0.031359 0.033603
-0.081741 -0.031726 0.030631
-0.090704 -0.032083 0.029570
0.026278 0.031108 -0.063928
0.025375 0.028029 -0.061584
0.020394 0.029870 -0.055085
0.004853 0.041252 -0.126050
0.005692 0.041148 -0.132465
0.003146 0.036011 -0.123418
-0.075080 -0.016174 0.025479
-0.032957 -0.007068 0.044419
-0.051156 -0.015878 0.049853
-0.048634 -0.016139 0.048675
-0.048115 -0.014318 0.049807
-0.057178 -0.020212 0.047254
-0.056582 -0.021603 0.044703
-0.068852 -0.030676 0.031452
-0.074805 -0.031835 0.027751
-0.078043 -0.031800 0.028544
-0.096981 -0.030507 0.033919
-0.104509 -0.026438 0.032804
-0.096448 -0.028824 0.035467
-0.095001 -0.020887 0.030621
0.001880 0.039282 0.054293
-0.000837 0.040936 0.056858
-0.055835 -0.022650 0.042821
-0.053375 -0.021271 0.044280
-0.071289 -0.030724 0.031178
-0.068833 -0.030660 0.031487
-0.088348 -0.041501 0.027473
-0.086584 -0.040524 0.033915
-0.088059 -0.041949 0.030304
-0.101225 -0.024376 0.032777
-0.001052 0.026722 0.036179
-0.069058 -0.014962 0.025056
-0.065028 -0.015732 0.029015
-0.053121 -0.019912 0.046158
-0.052605 -0.018140 0.048167
0.081892 -0.021475 0.059289
0.071488 -0.011348 0.053095
0.073926 -0.014962 0.056022
-0.059743 -0.025662 0.039009
-0.064130 -0.028940 0.034795
-0.049778 -0.012891 0.033253
-0.046643 -0.011179 0.032478
-0.037466 -0.008429 0.037882
-0.042653 -0.008715 0.031669
-0.035554 -0.009780 0.046084
-0.037886 -0.011382 0.045774
-0.035465 -0.008782 0.042812
-0.036815 -0.008632 0.048501
-0.041956 -0.012762 0.049029
-0.045504 -0.014046 0.049144
-0.049287 -0.018190 0.047059
-0.059926 -0.024609 0.040486
-0.061147 -0.027221 0.037093
-0.065820 -0.028773 0.034704
-0.076492 -0.030502 0.033362
-0.010338 0.041578 -0.119212
-0.020472 0.037191 -0.109215
-0.015873 0.035185 -0.118063
-0.085828 -0.019654 0.031877
-0.035697 -0.010156 0.048352
-0.035944 -0.009080 0.048302
-0.088791 -0.042752 0.029114
-0.089586 -0.042687 0.025259
-0.088301 -0.029842 0.035834
-0.095376 -0.026361 0.035791
-0.092328 -0.023907 0.035771
0.042255 0.033389 -0.081166
0.053778 0.038757 -0.092496
0.048620 0.036273 -0.088299
-0.011712 0.021050 0.015533
-0.091730 0.019699 0.005823
-0.095118 0.021143 0.002733
-0.098759 0.020055 0.005165
-0.096123 -0.022700 0.033030
-0.038790 -0.011105 0.049020
0.070840 0.030037 -0.011327
0.061709 0.033175 -0.016851
0.061382 0.030290 -0.006928
-0.045752 -0.016219 0.047944
-0.049941 -0.019983 0.045154
-0.075162 -0.030937 0.031283
-0.071662 -0.017373 0.030948
-0.056674 -0.013807 0.029565
-0.055661 -0.015317 0.034667
-0.064755 -0.029495 0.033952
0.080627 -0.017011 0.054083
0.076096 -0.014391 0.053972
0.083300 -0.020717 0.057702
-0.088532 -0.021556 0.034827
-0.077573 -0.018567 0.032695
0.095105 -0.023425 0.056246
0.094778 -0.021327 0.053979
0.106316 -0.030074 0.056652
-0.087341 -0.027761 0.037294
-0.068260 -0.018094 0.037881
-0.077918 -0.019708 0.037107
0.032391 0.071913 0.089210
-0.041050 0.004316 0.021527
0.177898 -0.042968 0.045815
0.170127 -0.047685 0.051706
0.172880 -0.039463 0.040782
-0.033397 0.029078 0.019654
-0.035866 0.022236 0.019437
-0.093521 0.050641 -0.029965
0.076964 0.040393 -0.085085
0.085432 0.043620 -0.096195
0.069685 0.039585 -0.085447
0.013999 0.057095 0.076199
0.019708 0.057453 0.075189
0.009316 0.051384 0.069254
-0.085646 0.019664 0.005122
-0.079429 0.017437 0.009494
-0.077064 0.018138 0.007394
-0.009943 0.031661 0.025178
-0.009588 0.029064 0.024064
-0.010430 0.023320 0.016232
-0.062741 -0.028766 0.035054
-0.065393 -0.029253 0.033923
-0.078271 -0.029743 0.035002
-0.079251 -0.028304 0.036759
-0.070427 -0.027746 0.035968
-0.037447 -0.011631 0.049482
-0.040013 -0.013451 0.049165
-0.042345 -0.014968 0.048433
-0.036263 0.021171 -0.042852
-0.038633 0.026001 -0.037842
-0.051635 -0.021787 0.043131
-0.056655 -0.025458 0.039047
-0.055028 -0.023865 0.040905
0.197116 -0.043032 0.046919
0.197058 -0.038542 0.041160
0.201636 -0.036541 0.038543
-0.027258 0.029639 0.020277
0.122299 0.020433 -0.008341
0.103430 0.019104 0.003961
0.107280 0.016035 0.012256
-0.058659 -0.026880 0.037481
-0.033765 -0.003568 0.053320
-0.086108 -0.025183 0.038224
-0.082796 -0.022596 0.038815
-0.018344 0.033987 0.023153
-0.014969 0.031416 0.022080
-0.015295 0.037242 0.026840
-0.097063 0.034296 -0.004441
-0.102875 0.032258 -0.004877
-0.093087 0.041101 -0.006102
-0.038987 -0.010678 0.041443
-0.038902 -0.013047 0.049452
-0.036834 -0.011788 0.049284
0.051532 0.040819 0.015204
0.055570 0.039715 0.014925
0.053098 0.037155 0.011535
-0.017399 0.015393 -0.034136
-0.023673 0.016735 -0.038403
-0.060618 -0.027995 0.036182
0.058964 0.027140 0.001889
0.054296 0.029631 -0.002400
0.055315 0.028146 0.000772
0.089010 0.020024 0.000789
0.090403 0.021369 0.002062
0.095428 0.016647 0.001529
0.051751 0.034608 0.008133
0.049375 0.038228 0.011098
0.072055 0.021240 0.005309
0.077971 0.017256 0.009041
0.070480 0.020754 0.007206
0.053756 0.028467 0.002172
0.057012 0.026847 0.002999
0.051842 0.029673 -0.000142
0.086229 0.027158 0.010005
0.082123 0.030552 0.016275
0.089208 0.025072 0.014052
-0.005199 0.029598 0.042687
-0.009523 0.029025 0.042594
-0.003936 0.032259 0.046299
0.086092 0.022732 0.029805
0.091283 0.016120 0.033829
0.094443 0.017495 0.028732
0.072567 0.029543 0.004453
0.073981 0.032211 0.006352
0.078139 0.026424 0.002168
0.012545 0.057808 0.047966
0.018534 0.060473 0.054549
0.016225 0.058089 0.047501
0.108005 0.010692 0.026713
0.106034 0.013556 0.020904
0.099491 0.015960 0.025290
0.083371 0.020978 0.000897
0.083424 0.024317 0.001455
-0.066156 0.006431 -0.055514
-0.058807 0.006879 -0.058715
-0.065877 0.002172 -0.052836
-0.122158 0.014563 0.005691
-0.120311 0.017361 0.004638
0.102845 0.016002 0.007553
0.094936 0.020056 0.004646
0.094101 0.021626 0.009086
0.105319 0.011881 0.003900
0.099807 0.016112 0.003291
0.109027 0.011860 0.006294
-0.035185 0.004946 0.015125
-0.041111 0.004523 0.018087
-0.034968 0.004469 0.019938
-0.054241 -0.025037 0.039318
-0.055678 -0.025958 0.038407
-0.113458 -0.010600 0.008348
0.071654 0.039490 0.015382
0.071102 0.042078 0.020998
0.074965 0.036521 0.012960
-0.024732 0.003599 0.030971
-0.026326 0.005762 0.027161
-0.028022 0.001124 0.031533
-0.023587 0.001674 0.034087
-0.020911 0.006821 0.028304
-0.023158 0.008104 0.026478
-0.028512 -0.004728 0.040250
-0.027542 -0.005844 0.043301
-0.025704 -0.002596 0.039371
-0.020782 0.003608 0.031727
-0.017333 0.008098 0.025638
-0.009554 0.015702 0.016343
-0.009154 0.017287 0.018714
-0.009465 0.018084 0.017622
-0.028859 -0.008025 0.045489
-0.026997 -0.006851 0.045114
-0.009226 0.017696 0.015986
-0.024900 -0.005480 0.043158
-0.024804 -0.003896 0.041521
-0.013683 0.005024 0.020743
-0.010020 0.010324 0.014077
-0.013274 0.006554 0.020711
0.002914 0.022734 0.036180
0.000296 0.022665 0.032648
0.011088 0.024966 0.042023
-0.012322 0.010098 0.018507
-0.010825 0.014180 0.015565
-0.013634 0.012134 0.019573
-0.011702 0.025985 0.035290
-0.011202 0.027207 0.039592
-0.011830 0.027238 0.038086
-0.011035 0.024278 0.029713
-0.009334 0.022304 0.025393
-0.008984 0.023741 0.028370
-0.016011 0.014319 0.020603
-0.012129 0.018296 0.016595
-0.014878 0.020865 0.018233
0.071072 0.046900 -0.015958
0.072489 0.051134 -0.009917
0.070415 0.056141 -0.020198
-0.009360 0.027070 0.039899
-0.005868 0.027121 0.039681
-0.007302 0.028448 0.043368
-0.015122 0.006973 0.023865
-0.062369 0.004712 0.005995
-0.056397 -0.000752 0.009532
-0.056629 0.005761 0.007436
-0.043436 0.008303 0.012480
-0.043635 0.013548 0.010647
-0.047217 0.011915 0.009412
-0.044928 -0.005973 0.017107
-0.047697 -0.010207 0.015383
-0.043458 -0.009663 0.018940
-0.045944 0.017897 0.008425
-0.040737 0.018588 0.010912
-0.032052 0.006171 0.021898
-0.033573 0.000815 0.025362
-0.029950 0.003544 0.026452
-0.022450 0.017486 0.019919
-0.023991 0.011066 0.023354
-0.020317 0.012499 0.023107
-0.021285 0.024268 0.018926
-0.025590 0.021824 0.017868
0.005947 0.026017 0.028384
0.011025 0.026355 0.028793
0.012266 0.027277 0.029286
0.006679 0.045443 0.066297
0.000115 0.039691 0.058828
0.002870 0.040484 0.060083
-0.017221 0.003304 0.032035
-0.021138 0.000423 0.033733
-0.018468 0.002737 0.033643
0.001985 0.002872 -0.057526
0.005030 0.006772 -0.064383
0.002665 0.006039 -0.068145
-0.018502 0.010389 0.024488
-0.017584 0.002506 0.029513
-0.018213 0.001589 0.028722
-0.020443 -0.000126 0.031794
-0.023280 -0.000552 0.034937
-0.025242 -0.002835 0.035260
-0.031924 -0.011505 0.044806
-0.030374 -0.010410 0.046357
-0.030678 -0.009958 0.045756
-0.031563 -0.012091 0.041369