# vtk DataFile Version 3.0
3D Unstructured Surface
ASCII
DATASET UNSTRUCTURED_GRID
POINTS 8455 float
19.934033 32.101102 -27.192586
19.774958 32.193419 -27.294741
19.932180 32.059609 -27.402022
19.771537 32.167532 -27.544834
19.533865 30.536832 -30.159748
19.697001 30.691373 -30.215989
19.696545 30.464388 -30.167492
19.559559 32.457542 -28.292433
19.592559 32.365225 -28.066584
19.423025 32.539249 -28.095552
19.669921 32.413133 -28.454418
19.709849 32.305656 -28.271458
19.544840 32.807703 -28.926976
19.727870 32.630977 -28.908580
19.539997 32.677714 -28.724392
19.699443 32.799391 -29.080137
19.553960 32.918661 -29.076176
19.664722 32.976025 -29.227036
19.814912 33.037308 -29.364985
19.620004 33.157030 -29.346762
19.839257 33.224309 -29.487656
19.830136 33.400582 -29.565106
20.045701 33.341713 -29.585860
19.913518 33.585196 -29.639371
20.175098 33.594961 -29.654415
20.343988 33.395132 -29.622716
20.449708 33.621747 -29.642755
20.288267 33.808019 -29.666874
20.530662 33.859189 -29.631655
20.748720 33.953588 -29.566999
20.547011 34.066158 -29.610861
20.719162 34.149698 -29.549236
20.965464 34.138444 -29.454071
19.215194 31.292245 -25.144785
19.378579 31.282364 -25.327010
19.385505 31.459293 -25.174098
21.182416 34.607564 -29.169676
21.290286 34.414094 -29.175990
21.043440 34.414783 -29.335071
21.437324 34.732079 -28.870471
21.589785 34.686103 -28.699571
21.554716 34.534602 -28.858905
21.983693 34.383657 -27.713624
21.957879 34.424051 -27.987834
21.890867 34.622499 -27.790551
21.996290 34.064076 -27.129490
22.056838 33.991133 -27.338494
22.002437 34.211515 -27.332656
20.668134 30.928948 -28.561049
20.820006 30.813341 -28.441364
20.860575 30.897604 -28.638119
21.929369 34.135931 -26.891537
21.947332 34.288716 -27.112559
21.888445 34.351886 -26.868259
21.084236 32.879994 -25.847365
21.323730 32.975004 -25.951911
21.158956 33.090585 -25.785763
20.594777 32.192818 -26.392091
20.684616 32.315762 -26.218408
20.467777 32.311605 -26.241927
20.450589 32.118776 -26.563444
20.398387 32.221527 -26.394680
20.197264 32.207772 -26.520226
20.322202 32.071894 -26.731462
19.855838 32.091567 -27.824324
19.660341 32.267906 -27.842703
21.846448 34.665652 -28.040187
21.899206 34.466893 -28.227666
20.882227 32.488261 -26.054240
20.956900 32.669155 -25.926701
20.744289 32.557856 -25.970413
19.056965 30.337514 -26.215596
18.784059 30.281935 -26.192648
18.948717 30.215204 -26.363354
20.755509 32.426637 -26.096802
16.588408 30.364410 -29.170665
16.716038 30.561470 -29.270702
16.822302 30.335744 -29.223660
19.773145 32.196450 -28.076375
19.724500 32.485924 -28.691651
20.568843 30.193575 -28.652805
20.527538 30.192896 -28.879663
20.743367 30.337157 -28.765273
20.050654 33.104148 -29.491448
19.975741 37.231374 -28.836381
19.722924 37.333213 -28.902388
19.859982 37.416098 -28.750925
20.655697 36.980625 -28.266807
20.750924 36.784816 -28.326790
20.625266 36.853964 -28.474416
20.749430 36.624157 -28.503748
20.578335 36.699621 -28.691654
18.688622 31.726277 -27.467916
18.581763 31.789253 -27.671581
18.465077 31.889001 -27.490170
18.923497 31.716802 -26.779606
18.655845 31.868989 -26.776777
18.815100 31.829633 -26.555317
19.104261 31.645667 -26.715544
19.038365 31.718811 -26.556450
19.213014 31.627175 -26.603720
19.458778 31.692788 -26.012004
19.429210 31.630478 -26.273887
19.271519 31.733078 -26.157689
19.457347 31.776246 -25.618164
19.587039 31.602217 -25.571728
19.566176 31.668216 -25.806611
18.539642 29.913250 -26.726653
18.470180 30.010288 -26.527541
18.324401 29.853727 -26.759608
21.710124 34.495508 -28.665148
21.681843 34.330036 -28.831063
21.084158 32.487979 -26.102857
21.212486 32.728906 -26.000022
16.961071 29.742567 -28.929119
16.767248 29.867450 -28.964451
17.003094 29.931783 -29.087561
20.173127 30.060080 -29.531875
20.008366 29.922129 -29.365243
19.932563 29.946808 -29.607485
20.759357 33.704315 -29.591927
20.619474 33.432251 -29.615484
20.969544 33.891707 -29.502440
19.520480 31.487690 -25.384343
19.620019 31.426605 -25.560279
19.193283 30.708683 -25.779454
19.431384 30.704707 -25.910296
19.396035 30.865696 -25.720601
19.745859 30.135110 -30.006238
19.779557 29.985715 -29.835165
19.551872 30.058307 -29.964595
21.714091 34.630422 -28.532310
21.819453 34.488497 -28.449455
22.076989 34.149161 -27.934379
19.391468 33.318064 -29.316510
19.456287 33.095585 -29.170342
20.082766 31.995262 -27.238804
20.227747 31.962834 -27.086273
20.051714 32.070536 -27.042457
19.856547 32.270204 -28.512098
20.012595 32.106540 -28.435789
19.900611 32.134374 -28.271893
20.589998 33.144126 -25.489938
20.377762 33.088308 -25.485232
20.483336 32.947959 -25.606434
16.854537 30.741969 -29.354834
16.729313 31.014843 -29.395174
16.982637 30.929849 -29.428807
16.708892 31.247131 -29.447210
16.913253 31.168810 -29.466118
19.703261 31.487529 -25.732242
21.402950 34.183366 -29.185942
21.497465 34.355255 -29.026471
21.914267 34.343847 -28.382796
21.998161 34.267776 -28.202933
22.068289 34.111327 -27.589148
21.982705 34.346402 -27.484226
22.043510 33.839609 -27.165337
21.904271 33.730039 -26.683914
21.940541 33.456940 -26.751678
22.009603 33.646722 -26.974203
19.646742 31.592993 -30.140320
19.835761 31.566808 -30.189057
19.690026 31.330193 -30.213344
20.908338 32.347679 -26.193388
19.904494 32.476498 -28.894257
18.817074 31.673958 -27.257424
18.591348 31.824584 -27.228250
18.740336 31.768577 -26.999300
19.114732 31.593705 -26.897229
19.302132 31.535146 -26.792277
19.769404 31.750603 -30.097533
19.880488 32.647524 -29.070491
19.602129 31.575653 -26.176370
19.694623 31.550446 -25.965500
19.860141 32.842375 -29.240962
20.281786 33.163011 -29.559331
21.613307 34.154729 -29.011299
22.157208 33.905746 -27.785750
21.471093 32.796742 -26.145493
20.836213 32.196657 -26.369442
21.078481 32.295396 -26.271901
19.942993 31.963917 -29.713581
20.130586 31.795124 -29.706576
19.929944 31.886364 -29.940998
16.929947 30.132043 -29.171121
17.127970 30.086550 -29.211800
16.989399 30.537181 -29.333528
20.266228 30.984485 -28.086264
20.296912 30.982256 -28.337574
20.106662 31.037360 -28.265974
18.721065 30.003989 -26.631041
18.711425 29.890861 -26.829880
19.402997 31.561898 -26.542707
19.636338 31.503362 -26.376289
20.746271 31.002942 -28.796341
20.836681 31.035629 -29.011933
20.601366 31.129241 -29.000033
18.973746 31.630779 -27.034609
20.872701 30.488743 -28.540918
20.696677 30.288161 -28.503132
19.135864 31.493044 -24.829036
19.061515 31.332462 -24.957190
19.251984 31.455884 -24.997623
19.967371 32.005822 -27.608070
19.940938 32.333231 -28.739337
18.811651 30.916136 -25.308168
18.998196 31.005571 -25.311018
18.813652 31.037325 -25.151701
20.027001 32.903547 -29.368066
20.510247 33.213007 -29.588677
21.134899 34.017691 -29.405278
21.202553 33.833392 -29.417909
21.786399 34.120914 -28.831297
21.831190 34.295809 -28.627358
18.517104 29.791429 -26.946347
20.661613 30.323115 -29.069661
22.133016 33.838724 -27.528063
20.392093 30.180475 -29.387896
20.240784 30.056490 -29.272600
20.541613 31.988551 -26.758837
20.769339 31.921751 -26.759065
20.955093 31.881878 -26.751698
20.901744 32.018296 -26.594224
19.955608 32.031810 -28.049845
20.069773 32.702299 -29.241443
19.827510 30.316914 -30.102995
19.573915 30.307754 -30.102963
20.252541 32.951888 -29.467828
20.259303 32.761107 -29.363517
13.488766 32.293563 -29.267700
13.592009 32.322279 -29.092450
13.476443 32.122710 -29.069376
17.186291 30.860016 -29.460836
17.038926 30.736419 -29.397685
20.917862 33.442788 -29.566712
20.782411 33.220779 -29.581565
21.418103 33.800024 -29.306901
21.307483 34.006273 -29.313192
17.630430 30.675990 -25.052128
17.514734 30.761528 -24.870681
17.448878 30.589415 -25.107894
22.103630 33.768503 -27.342617
21.713864 33.516479 -26.261937
21.671122 33.249935 -26.235706
21.824692 33.405183 -26.481628
20.688379 32.067566 -26.569341
19.594221 31.008820 -30.209069
19.813658 31.125128 -30.257973
20.160515 31.726925 -29.997685
19.965739 31.725210 -30.101386
20.053179 31.932279 -27.847509
21.067789 33.667960 -29.504234
22.097313 34.045072 -28.208555
22.086419 33.631175 -27.207031
22.048772 33.416450 -27.028483
21.249603 32.385846 -26.242645
20.374576 31.956777 -26.937184
20.599793 31.845311 -26.980451
18.938632 30.103395 -26.542534
18.942736 29.951453 -26.808435
20.078425 31.989265 -28.266957
21.308887 33.629478 -29.407195
21.997213 34.151370 -28.415879
21.626728 33.010380 -26.231256
21.503383 33.186271 -26.040436
20.143448 31.890595 -28.079142
14.323709 30.465077 -25.775972
14.346580 30.273626 -25.610160
14.210639 30.239864 -25.819994
20.009344 30.045855 -29.760930
20.057626 32.175416 -28.632160
20.142593 32.299964 -28.891715
17.062800 30.297892 -29.278165
17.264927 30.216849 -29.308603
17.207969 30.430031 -29.361930
20.426055 33.029254 -29.534496
17.827480 31.215187 -23.820967
18.080383 31.366033 -23.824704
18.026920 31.167185 -23.971100
17.086922 31.290696 -29.524394
17.301336 31.256665 -29.560933
17.144655 31.097147 -29.498644
21.179905 33.432388 -29.491672
22.163328 33.919528 -28.014533
22.206486 33.681878 -27.706253
22.158514 33.604572 -27.435820
21.564031 32.596388 -26.320063
21.338263 32.548716 -26.176450
21.423961 32.386259 -26.337979
14.291405 33.830326 -29.634200
14.466705 33.968365 -29.470362
14.354312 33.771021 -29.438162
17.337218 30.023995 -29.249866
17.217304 29.919360 -29.152866
20.268489 31.780077 -27.883071
20.074829 32.504186 -29.065594
20.465488 32.855990 -29.471432
18.885931 33.995904 -23.296517
18.836069 33.772625 -23.282959
18.732245 33.969014 -23.192684
21.707785 33.933042 -29.024810
22.221143 33.350684 -27.513673
22.143024 33.394584 -27.287246
20.897246 30.501960 -29.008609
16.204029 31.198221 -23.353610
16.260005 31.360305 -23.403325
16.343763 31.322075 -23.247266
20.629668 33.022844 -29.552050
21.027126 33.218954 -29.544691
21.678606 32.807663 -26.354036
21.732646 32.969259 -26.382422
21.410598 31.616266 -28.883416
21.554724 31.476549 -28.798785
21.355678 31.481217 -28.684744
20.891375 31.777234 -26.920990
20.418254 31.859681 -27.113244
20.281623 31.858833 -27.306308
20.531350 31.734042 -27.283883
[...]
POINT_DATA 8455
VECTORS Displacement float
-0.174033 -0.020702 -0.112314
-0.151958 -0.016019 -0.107759
-0.173480 -0.025609 -0.096378
-0.148537 -0.022432 -0.087466
-0.084465 0.122068 0.162748
-0.093901 0.095927 0.148489
-0.098245 0.122512 0.160592
-0.079459 -0.031342 -0.018867
-0.099259 -0.028225 -0.041516
-0.066225 -0.022749 -0.034448
-0.086221 -0.037333 -0.005182
-0.106649 -0.035956 -0.024442
-0.021140 -0.036803 0.053476
-0.052370 -0.042177 0.044880
-0.040297 -0.035814 0.029092
-0.029043 -0.041191 0.067537
-0.006860 -0.037161 0.072276
-0.006622 -0.039925 0.088936
-0.011212 -0.043408 0.105085
0.014596 -0.038930 0.108662
0.001543 -0.044809 0.125056
0.013364 -0.046782 0.140306
-0.012201 -0.051913 0.139760
0.012682 -0.053296 0.155171
-0.017698 -0.061861 0.156215
-0.043188 -0.061932 0.145016
-0.050408 -0.071647 0.154155
-0.027467 -0.072919 0.164174
-0.057462 -0.082889 0.159255
-0.084020 -0.093688 0.152299
-0.058311 -0.092158 0.161961
-0.079762 -0.101098 0.154536
-0.109664 -0.107744 0.141571
-0.156794 0.084155 -0.159115
-0.175979 0.079536 -0.159090
-0.168905 0.066907 -0.168102
-0.135816 -0.134864 0.118676
-0.147086 -0.128594 0.116590
-0.119240 -0.122183 0.132971
-0.164424 -0.147779 0.094471
-0.181285 -0.150803 0.080971
-0.176216 -0.142002 0.091305
-0.236693 -0.164557 0.009524
-0.226879 -0.159951 0.029034
-0.228267 -0.170799 0.016151
-0.251690 -0.162376 -0.037610
-0.247938 -0.157833 -0.019706
-0.248037 -0.165215 -0.020344
-0.226134 -0.009048 -0.011151
-0.229806 -0.010441 -0.014236
-0.220975 -0.019504 -0.002081
-0.252869 -0.165331 -0.058763
-0.250332 -0.169716 -0.038741
-0.250145 -0.172086 -0.059941
-0.197536 -0.076594 -0.179935
-0.209830 -0.094304 -0.157289
-0.201056 -0.086885 -0.189237
-0.202477 -0.043118 -0.143309
-0.197816 -0.046862 -0.154192
-0.190877 -0.033405 -0.166273
-0.203389 -0.036776 -0.137856
-0.194487 -0.030927 -0.155820
-0.186564 -0.020372 -0.156574
-0.202002 -0.031894 -0.131738
-0.153538 -0.032167 -0.064876
-0.121641 -0.025606 -0.062597
-0.217648 -0.166552 0.034187
-0.216406 -0.155693 0.045466
-0.196327 -0.058561 -0.159760
-0.194300 -0.064655 -0.172699
-0.188689 -0.049956 -0.179687
-0.144165 0.169886 -0.115404
-0.113359 0.182965 -0.102652
-0.127517 0.182296 -0.100546
-0.194609 -0.050637 -0.162898
0.124292 0.234690 0.165165
0.114762 0.220330 0.163002
0.110598 0.238856 0.179960
-0.129045 -0.034550 -0.043325
-0.073900 -0.041324 0.019351
-0.208443 0.081325 0.015405
-0.200438 0.089004 0.035563
-0.209167 0.050343 0.017073
-0.026154 -0.049348 0.121048
-0.037041 -0.228574 0.032181
-0.019624 -0.241813 0.042388
-0.031082 -0.241398 0.022325
-0.084097 -0.210225 -0.005293
-0.091224 -0.205116 0.006890
-0.081166 -0.205864 0.013116
-0.090530 -0.200357 0.024048
-0.076835 -0.200521 0.032254
-0.108022 0.054723 -0.088384
-0.090363 0.051047 -0.072019
-0.076777 0.053399 -0.080930
-0.139197 0.062098 -0.135394
-0.103045 0.063411 -0.129923
-0.121600 0.065267 -0.146083
-0.160961 0.060133 -0.141556
-0.150665 0.062689 -0.149450
-0.172414 0.058725 -0.148380
-0.186178 0.053112 -0.174396
-0.190010 0.053822 -0.163613
-0.169819 0.059422 -0.171111
-0.174847 0.052454 -0.188236
-0.190739 0.051683 -0.174472
-0.191876 0.049484 -0.176389
-0.067942 0.210250 -0.043047
-0.067080 0.206612 -0.056259
-0.043701 0.218073 -0.025892
-0.192624 -0.145908 0.076048
-0.187543 -0.137036 0.085963
-0.201758 -0.070379 -0.141543
-0.203886 -0.081406 -0.150778
0.105229 0.273433 0.200219
0.116252 0.266650 0.190151
0.103306 0.266317 0.203661
-0.156427 0.135620 0.109575
-0.148666 0.158371 0.108043
-0.134963 0.161192 0.131185
-0.086557 -0.084515 0.147827
-0.073674 -0.071651 0.143784
-0.110344 -0.098007 0.141140
-0.184580 0.060410 -0.168857
-0.197419 0.057795 -0.163121
-0.166283 0.134617 -0.138746
-0.188784 0.120893 -0.139804
-0.185935 0.110204 -0.144399
-0.108559 0.154990 0.164138
-0.115657 0.166485 0.155165
-0.092672 0.172193 0.173895
-0.195091 -0.153222 0.068010
-0.205353 -0.150997 0.060655
-0.231289 -0.151761 0.024279
0.046632 -0.033464 0.116310
0.019613 -0.034485 0.090342
-0.191566 -0.028862 -0.104496
-0.203647 -0.033134 -0.109927
-0.186414 -0.023036 -0.120143
-0.110347 -0.043904 -0.002802
-0.137895 -0.047940 -0.011911
-0.135611 -0.042074 -0.026907
-0.155898 -0.045326 -0.264262
-0.138962 -0.027808 -0.277568
-0.155136 -0.034059 -0.251066
0.103763 0.204531 0.158834
0.110587 0.180657 0.140774
0.093063 0.186051 0.151507
0.112108 0.159869 0.130610
0.097147 0.164890 0.137718
-0.205361 0.048571 -0.163658
-0.158150 -0.122066 0.112942
-0.168965 -0.132055 0.102071
-0.212667 -0.148147 0.054496
-0.221261 -0.149776 0.042133
-0.242089 -0.157727 -0.000052
-0.243405 -0.167502 -0.007974
-0.249810 -0.154709 -0.033963
-0.250571 -0.150939 -0.078286
-0.245541 -0.141640 -0.069022
-0.249103 -0.149122 -0.049997
-0.070642 0.008507 0.088420
-0.080061 0.002192 0.086957
-0.079126 0.027907 0.105144
-0.201638 -0.059979 -0.141812
-0.079394 -0.047498 0.039657
-0.126674 0.057442 -0.104976
-0.096648 0.057716 -0.101250
-0.116836 0.060723 -0.118900
-0.163632 0.058295 -0.131771
-0.184532 0.055054 -0.139223
-0.072304 -0.007403 0.077033
-0.056388 -0.046324 0.061991
-0.204729 0.047247 -0.163430
-0.208223 0.044654 -0.164900
-0.033241 -0.044875 0.085362
-0.045386 -0.056111 0.130731
-0.178907 -0.127429 0.096999
-0.234008 -0.146646 0.014350
-0.213293 -0.097242 -0.124607
-0.206613 -0.056957 -0.129458
-0.205281 -0.069096 -0.122799
-0.085993 -0.031717 0.054481
-0.105786 -0.033624 0.053476
-0.080144 -0.023864 0.064898
0.106253 0.254057 0.194521
0.094530 0.256850 0.204300
0.097201 0.221819 0.175428
-0.235928 0.013015 -0.055936
-0.226812 0.011544 -0.035626
-0.219362 0.019240 -0.044626
-0.091865 0.201111 -0.064359
-0.083225 0.206539 -0.045520
-0.192597 0.053602 -0.151493
-0.212438 0.045338 -0.155211
-0.213671 -0.019642 0.004941
-0.201681 -0.025629 0.019033
-0.197666 -0.020241 0.015033
-0.146946 0.058921 -0.121691
-0.218301 0.018457 -0.002282
-0.216277 0.056039 -0.000468
-0.135964 0.068156 -0.167864
-0.136415 0.083338 -0.159110
-0.152484 0.069916 -0.167277
-0.175271 -0.031622 -0.080630
-0.100638 -0.048331 0.020937
-0.122451 0.127364 -0.140232
-0.142096 0.115329 -0.146082
-0.119352 0.115075 -0.143899
-0.039301 -0.048547 0.101366
-0.067147 -0.063607 0.135177
-0.128899 -0.107691 0.132178
-0.135753 -0.102892 0.128309
-0.193999 -0.131514 0.082197
-0.201790 -0.141109 0.070458
-0.057504 0.216171 -0.020853
-0.197713 0.064585 0.042361
-0.241216 -0.149624 -0.004037
-0.175593 0.106925 0.083496
-0.170784 0.130710 0.085300
-0.213713 -0.045151 -0.116763
-0.218939 -0.057451 -0.102135
-0.218293 -0.066178 -0.090302
-0.214144 -0.062396 -0.105776
-0.157208 -0.040010 -0.046655
-0.060773 -0.050599 0.082343
-0.111910 0.132086 0.158395
-0.090915 0.146246 0.171263
-0.054341 -0.054088 0.114428
-0.068503 -0.054807 0.098117
0.358034 -0.054363 0.115400
0.362391 -0.051079 0.103750
0.369357 -0.040510 0.094776
0.079009 0.189084 0.159036
0.091074 0.203281 0.164385
-0.106362 -0.081688 0.136412
-0.095111 -0.072279 0.133165
-0.157103 -0.108424 0.115501
-0.147383 -0.112373 0.121492
-0.001330 0.134410 -0.087972
0.007866 0.123372 -0.089919
0.012122 0.139785 -0.078606
-0.245130 -0.150303 -0.018483
-0.239064 -0.135379 -0.121163
-0.231322 -0.123235 -0.119994
-0.241492 -0.136083 -0.095172
-0.211379 -0.050866 -0.122059
-0.081021 0.064380 0.129569
-0.091158 0.041872 0.115773
-0.097715 -0.025625 0.067185
-0.083539 -0.014810 0.074386
-0.179079 -0.039479 -0.062191
-0.121389 -0.093160 0.134234
-0.221513 -0.142272 0.041055
-0.245519 -0.147275 -0.029069
-0.243172 -0.140850 -0.042717
-0.205303 -0.077846 -0.116655
-0.210976 -0.038477 -0.113416
-0.222193 -0.051211 -0.098149
-0.120232 0.189205 -0.086666
-0.110436 0.196447 -0.064365
-0.159025 -0.047565 -0.027943
-0.145787 -0.099678 0.121895
-0.214013 -0.141370 0.054479
-0.223428 -0.112080 -0.115844
-0.221783 -0.111871 -0.144964
-0.178548 -0.046495 -0.043658
0.223491 0.133823 -0.195728
0.182820 0.123474 -0.163740
0.192961 0.122036 -0.147806
-0.136644 0.147745 0.135730
-0.126026 -0.051416 0.008160
-0.109793 -0.055064 0.037215
0.095900 0.241508 0.191965
0.083873 0.245851 0.201703
0.084131 0.228769 0.187830
-0.065855 -0.059054 0.123896
-0.003880 0.048013 -0.083833
-0.015683 0.042067 -0.098396
-0.018520 0.054115 -0.091000
0.084378 0.150504 0.133594
0.067964 0.148135 0.135633
0.080145 0.167353 0.144144
-0.132905 -0.089988 0.126472
-0.226628 -0.142228 0.029033
-0.232286 -0.140878 0.009553
-0.239214 -0.143372 -0.009980
-0.211231 -0.095788 -0.099737
-0.206763 -0.084516 -0.121550
-0.206461 -0.085559 -0.100021
0.294295 -0.125626 0.180000
0.294895 -0.122965 0.182362
0.301888 -0.120821 0.177462
0.081782 0.258805 0.211766
0.090396 0.266440 0.211866
-0.200489 -0.047377 -0.056829
-0.082329 -0.052186 0.058994
-0.078388 -0.059790 0.112632
0.083669 0.004296 -0.271983
0.070131 0.005475 -0.261641
0.087155 0.000886 -0.263716
-0.184285 -0.121842 0.093510
-0.229843 -0.133684 -0.002327
-0.237724 -0.138284 -0.020254
-0.200346 0.021740 0.026409
0.087371 0.049879 -0.115190
0.095595 0.052195 -0.134075
0.080437 0.042125 -0.107034
-0.085368 -0.064944 0.125250
-0.119126 -0.080154 0.127791
-0.219106 -0.107063 -0.097464
-0.225646 -0.115259 -0.097278
-0.179498 -0.085166 0.041816
-0.177524 -0.085149 0.034885
-0.190178 -0.082617 0.026244
-0.223475 -0.064734 -0.083710
-0.217354 -0.043481 -0.099556
-0.210423 -0.039533 -0.093292
-0.225550 -0.050942 -0.084317
-0.164556 0.107851 0.100820
-0.218458 0.043462 -0.146033
-0.193457 -0.053707 -0.035767
-0.109499 -0.072179 0.122356
-0.165056 -0.105415 0.109633
-0.175672 -0.113646 0.101640
-0.235922 -0.128632 -0.074651
-0.228825 -0.122300 -0.056753
-0.237597 -0.132498 -0.052456
-0.112550 0.105736 0.148325
-0.225647 -0.116360 -0.079670
-0.206377 -0.078654 -0.100311
-0.209722 -0.070038 -0.103932
-0.207176 0.059864 -0.154136
-0.217409 0.046412 -0.153706
0.269605 -0.094228 0.138419
0.268262 -0.088693 0.138976
0.264886 -0.083503 0.136776
-0.173509 -0.051952 -0.026426
-0.144661 -0.060169 0.018270
-0.142878 -0.089266 0.119590
-0.153542 -0.096968 0.116003
-0.179606 -0.110158 0.097329
-0.196735 -0.125415 0.079396
-0.188914 -0.118112 0.088369
0.070949 0.231345 0.195474
0.075208 0.134727 0.127382
0.059558 0.128226 0.126275
0.113161 0.051470 0.091186
0.099890 0.042493 0.087657
0.089654 0.060133 0.095705
-0.229346 -0.135728 0.006194
-0.222957 -0.132617 0.019745
-0.217687 -0.110582 -0.059870
0.208524 -0.001707 -0.469000
0.203067 0.013011 -0.455780
0.190429 -0.005899 -0.487556
-0.053956 0.167167 0.179210
-0.071244 0.170858 0.181746
-0.053812 0.197427 0.186995
-0.092562 -0.007850 0.081026
-0.207196 -0.093832 -0.079811
-0.204432 -0.085557 -0.081312
-0.213126 -0.072220 -0.086398
-0.155410 -0.054785 -0.006077
-0.022348 0.067212 -0.085624
-0.038260 0.074467 -0.090769
-0.022946 0.078843 -0.079261
-0.105943 -0.067773 0.110941
-0.097251 -0.062307 0.094323
0.210922 0.062338 -0.158439
0.223406 0.063089 -0.192528
0.239292 0.059611 -0.147128
-0.209110 0.110488 -0.135887
-0.208908 0.099968 -0.140014
-0.193303 0.126528 -0.135778
-0.084929 0.207170 -0.034994
0.077755 0.049869 0.091561
0.071564 0.062930 0.097414
-0.006318 0.159657 -0.074483
-0.009267 0.172492 -0.067563
-0.026090 0.163892 -0.084500
0.072520 0.048299 -0.093356
0.060316 0.042573 -0.079315
0.060011 0.051245 -0.077251
-0.225015 -0.137046 0.024677
-0.228284 -0.124741 -0.036916
-0.235170 -0.132921 -0.031333
-0.215168 -0.104669 -0.077931
-0.220100 0.072986 -0.141941
-0.205368 0.091676 -0.143631
-0.111235 0.197286 -0.052563
-0.210357 0.005049 0.007926
-0.220868 -0.009471 -0.003797
-0.228123 -0.054868 -0.069137
-0.219614 -0.047540 -0.077948
-0.201868 -0.041023 -0.075869
-0.217420 -0.049973 -0.065670
-0.212784 -0.054562 -0.048481
-0.203666 -0.060872 -0.026189
-0.104008 -0.058388 0.059327
-0.129425 -0.063818 0.047160
-0.088531 -0.057068 0.077261
-0.133137 -0.081240 0.118547
-0.168572 -0.102030 0.105699
-0.228227 -0.129654 -0.011468
-0.206121 -0.080781 -0.064125
-0.201073 -0.085780 -0.065285
-0.206967 -0.078989 -0.082934
0.090743 0.089916 -0.153315
0.092768 0.081851 -0.147030
0.078935 0.084799 -0.126976
0.174121 -0.011295 -0.328196
0.180372 -0.015005 -0.358044
0.170458 -0.018906 -0.339996
-0.179300 -0.059397 -0.012072
-0.126766 -0.076031 0.113171
-0.203584 -0.125667 0.067679
-0.199292 -0.119004 0.069076
-0.196806 -0.120466 0.077346
-0.216819 -0.132469 0.040963
-0.215580 -0.128407 0.033220
-0.217635 -0.114492 -0.038879
-0.207202 -0.099971 -0.060775
-0.201641 -0.091370 -0.064657
-0.217190 -0.072569 -0.074922
-0.229270 -0.061177 -0.078191
-0.223094 -0.071888 -0.065702
-0.226721 -0.058393 -0.054625
0.054599 0.109143 0.117560
0.039363 0.118074 0.123063
-0.213276 -0.124753 0.027784
-0.207965 -0.121965 0.037783
-0.198152 -0.095548 -0.046835
-0.206054 -0.104278 -0.040922
-0.174545 -0.205464 -0.080886
-0.181808 -0.205430 -0.063544
-0.170825 -0.206132 -0.068149
-0.232100 -0.060940 -0.068435
0.083694 0.033923 0.084573
-0.163726 -0.060344 0.002167
-0.171623 -0.066449 0.011442
-0.208208 -0.123592 0.045672
-0.207469 -0.125191 0.055507
0.277665 -0.116948 0.176235
0.272469 -0.103664 0.161493
0.275166 -0.111945 0.167812
-0.219378 -0.125299 0.006362
-0.216821 -0.117634 -0.019564
-0.144041 -0.070416 0.052199
-0.131016 -0.067862 0.061259
-0.119397 -0.069223 0.090961
-0.114351 -0.064220 0.071974
-0.138388 -0.078995 0.103883
-0.142849 -0.079036 0.092644
-0.128336 -0.074259 0.101415
-0.157933 -0.095363 0.111803
-0.181120 -0.106343 0.092681
-0.191464 -0.114188 0.082064
-0.200298 -0.117847 0.058319
-0.221822 -0.129179 0.012335
-0.217706 -0.121394 -0.004722
-0.226019 -0.125615 -0.020356
-0.195587 -0.087188 -0.049107
0.143306 0.030011 -0.453015
0.115070 0.031183 -0.449597
0.124936 0.017059 -0.470717
-0.220681 -0.062949 -0.036085
-0.148113 -0.084947 0.107979
-0.153020 -0.090328 0.112058
-0.161200 -0.206299 -0.064115
-0.163697 -0.205722 -0.078958
-0.211763 -0.078968 -0.056042
-0.228975 -0.069802 -0.058881
-0.231304 -0.068229 -0.050807
0.132703 0.100608 -0.211558
0.160936 0.115698 -0.246728
0.153789 0.107990 -0.235785
-0.091719 0.016424 0.098481
-0.138554 0.051020 -0.081967
-0.134008 0.054427 -0.093145
-0.159583 0.052148 -0.096336
-0.231844 -0.062156 -0.057273
-0.168214 -0.098295 0.103336
0.140355 0.114675 -0.042607
0.126763 0.124278 -0.049644
0.124844 0.119306 -0.027550
-0.192884 -0.112609 0.072170
-0.200142 -0.116743 0.047850
-0.196589 -0.090055 -0.052786
-0.194159 -0.066896 -0.005287
-0.151074 -0.067232 0.033141
-0.166380 -0.073348 0.034766
-0.208610 -0.109886 -0.025752
0.269387 -0.095880 0.162351
0.271086 -0.100352 0.162955
0.275240 -0.108560 0.172495
-0.229157 -0.066226 -0.042113
-0.210661 -0.066505 -0.018967
0.293319 -0.117066 0.178379
0.286625 -0.102536 0.169373
0.297658 -0.118876 0.178946
-0.217254 -0.077913 -0.048200
-0.205543 -0.073482 0.000070
-0.220408 -0.070521 -0.020984
0.070866 0.246612 0.207340
-0.189843 -0.026995 0.027956
0.345409 -0.073231 0.128017
0.334061 -0.087446 0.141636
0.345907 -0.073841 0.122955
-0.186513 0.076233 0.063735
-0.193262 0.046257 0.046028
-0.141145 0.099578 -0.151926
0.175408 0.128916 -0.211889
0.199979 0.136942 -0.242239
0.163434 0.125913 -0.215205
0.043417 0.188156 0.169241
0.061228 0.191347 0.166802
0.043283 0.164698 0.151647
-0.111668 0.050288 -0.071854
-0.114547 0.042364 -0.052436
-0.090615 0.044131 -0.051960
-0.112079 0.079585 0.135179
-0.100302 0.062679 0.128174
-0.105868 0.033424 0.108266
-0.198562 -0.103848 -0.020968
-0.193331 -0.097771 -0.030000
-0.197588 -0.085013 -0.045456
-0.202427 -0.083481 -0.040214
-0.188202 -0.087758 -0.030618
-0.161892 -0.092586 0.103374
-0.175261 -0.100526 0.093025
-0.183761 -0.105947 0.082598
-0.024686 0.036525 -0.110549
-0.034554 0.048428 -0.104836
-0.202425 -0.117168 0.036100
-0.208790 -0.117343 0.010005
-0.209000 -0.119705 0.021242
0.356106 -0.048349 0.118362
0.363395 -0.045196 0.108866
0.367799 -0.036109 0.100719
-0.175756 0.080377 0.080839
0.221392 0.087110 -0.046024
0.184650 0.080297 -0.019363
0.188275 0.072240 -0.005586
-0.207508 -0.114220 -0.001172
-0.134264 -0.116629 0.127859
-0.223441 -0.075559 -0.041829
-0.225511 -0.073646 -0.033286
-0.150508 0.108517 0.112870
-0.146964 0.095189 0.117755
-0.138972 0.121595 0.132822
-0.222706 0.100697 -0.128540
-0.224124 0.089654 -0.134418
-0.207921 0.119086 -0.130844
-0.134897 -0.074614 0.087473
-0.153377 -0.083389 0.086052
-0.149976 -0.083794 0.097953
0.107971 0.168892 0.065258
0.117285 0.170042 0.066899
0.111645 0.160331 0.056558
0.007838 0.037591 -0.083309
-0.001794 0.034934 -0.095257
-0.203291 -0.109171 -0.011631
0.120601 0.117232 -0.002353
0.112937 0.123554 -0.006374
0.114899 0.122907 0.003208
0.184562 0.119074 0.007589
0.189772 0.122021 0.013401
0.194165 0.105467 0.001286
0.108801 0.151506 0.046412
0.103257 0.159092 0.053496
0.148140 0.121034 0.017418
0.155093 0.103129 0.008515
0.143630 0.115664 0.016143
0.112723 0.129497 0.017141
0.118242 0.122677 0.010138
0.108874 0.128922 0.009002
0.189002 0.135305 0.040156
0.184717 0.141921 0.057097
0.196451 0.124552 0.046171
0.060624 0.057411 0.095212
0.046474 0.055858 0.094621
0.056558 0.073129 0.101929
0.201199 0.104291 0.084221
0.213563 0.080785 0.095904
0.214013 0.090137 0.081477
0.155684 0.153877 0.040009
0.160582 0.161338 0.047677
0.166593 0.143872 0.027945
0.011081 0.202338 0.106862
0.026204 0.211556 0.127496
0.021116 0.201857 0.105041
0.232025 0.074247 0.074106
0.225736 0.085443 0.057257
0.219177 0.088899 0.071306
0.173108 0.124208 0.010753
0.176896 0.135091 0.020035
-0.039995 -0.009455 -0.266902
-0.023720 -0.012370 -0.283530
-0.052514 -0.021356 -0.270972
-0.234682 0.036172 -0.138858
-0.219933 0.043236 -0.136838
0.212591 0.099244 0.018883
0.199308 0.114685 0.016851
0.201424 0.116713 0.030273
0.208240 0.086844 -0.001733
0.203807 0.101976 0.005998
0.218135 0.086274 0.008417
-0.161791 -0.030740 0.037083
-0.182195 -0.026777 0.027823
-0.176038 -0.030331 0.037458
-0.198114 -0.110667 0.012918
-0.194549 -0.107034 0.004497
-0.159431 -0.011204 -0.129684
0.158594 0.178638 0.072730
0.159605 0.182516 0.083731
0.166414 0.169189 0.063224
-0.156821 -0.029018 0.033041
-0.161851 -0.019017 0.028615
-0.156670 -0.036514 0.024094
-0.151701 -0.037649 0.037758
-0.156183 -0.018137 0.044631
-0.161074 -0.011097 0.038542
-0.144547 -0.058505 0.029723
-0.140286 -0.063745 0.037927
-0.145786 -0.052834 0.036599
-0.150418 -0.031856 0.045614
-0.150941 -0.015323 0.055943
-0.047746 -0.015768 0.079023
-0.031435 -0.013046 0.078358
-0.042280 -0.008629 0.081886
-0.136041 -0.070831 0.040462
-0.136818 -0.068221 0.046354
-0.052737 -0.008302 0.084014
-0.136425 -0.064776 0.052473
-0.140877 -0.058686 0.044834
-0.116560 -0.038198 0.070171
-0.114745 -0.020651 0.076005
-0.128616 -0.029269 0.067565
0.118825 -0.012628 0.122074
0.131512 -0.003257 0.105745
0.142966 -0.009061 0.135760
-0.136800 -0.012574 0.070578
-0.137747 0.005390 0.080133
-0.146475 -0.000301 0.069896
0.001249 0.023116 0.097466
0.009927 0.034484 0.102106
-0.005246 0.035260 0.105089
-0.006351 0.010789 0.090588
-0.005499 -0.000537 0.083069
0.007368 0.002976 0.085198
-0.155363 0.012547 0.067072
-0.146689 0.028292 0.086729
-0.154704 0.043788 0.085740
0.317636 -0.028387 0.046581
0.325079 -0.022180 0.057693
0.321775 -0.012775 0.038312
0.026422 0.032578 0.098787
0.046127 0.032447 0.095487
0.034451 0.046093 0.103421
-0.141442 -0.023011 0.062040
-0.195141 -0.006590 -0.031307
-0.183740 -0.026810 -0.023850
-0.189999 -0.005101 -0.023553
-0.179197 -0.000601 -0.003587
-0.182105 0.019697 0.000162
-0.184592 0.014230 -0.007206
-0.161637 -0.048606 -0.011876
-0.155622 -0.058902 -0.017123
-0.150558 -0.059945 -0.011687
-0.184610 0.037377 -0.000366
-0.180678 0.039660 0.011160
-0.167750 -0.013951 0.015181
-0.161997 -0.033656 0.009975
-0.162616 -0.025669 0.018833
-0.166549 0.031350 0.054095
-0.164911 0.002444 0.038890
-0.161597 0.006917 0.051318
-0.164344 0.063452 0.074573
-0.169537 0.052587 0.054908
0.068733 -0.004551 0.091518
0.080259 -0.007531 0.098249
0.091697 -0.003472 0.097107
0.026928 0.142596 0.159504
0.017247 0.114261 0.142672
0.031034 0.119252 0.141331
-0.077478 -0.052666 0.105030
-0.095808 -0.059235 0.102149
-0.082879 -0.057817 0.106969
0.066570 0.016165 -0.155169
0.081156 0.021854 -0.168621
0.080438 0.015473 -0.179359
-0.156669 -0.003996 0.054159