# vtk DataFile Version 3.0
3D Unstructured Surface
ASCII
DATASET UNSTRUCTURED_GRID
POINTS 8455 float
19.926161 32.052888 -27.159161
19.758490 32.135982 -27.254609
19.920167 32.002816 -27.364388
19.749993 32.100387 -27.500669
19.525171 30.481165 -30.155640
19.688872 30.628529 -30.210468
19.691316 30.408469 -30.166830
19.519246 32.366599 -28.237021
19.555760 32.278548 -28.013961
19.380626 32.449619 -28.037302
19.631922 32.322096 -28.402268
19.674989 32.217365 -28.222056
19.502106 32.718010 -28.858551
19.689814 32.542165 -28.852040
19.496904 32.585434 -28.661336
19.660959 32.713742 -29.016463
19.512197 32.832207 -29.003103
19.626441 32.894477 -29.155184
19.781475 32.962343 -29.297313
19.582343 33.079909 -29.266470
19.808082 33.155740 -29.415533
19.800288 33.336771 -29.488351
20.021316 33.283175 -29.522681
19.887263 33.528637 -29.564474
20.155820 33.547262 -29.594995
20.329117 33.348864 -29.577987
20.438926 33.585183 -29.601576
20.272984 33.769230 -29.613351
20.522714 33.831043 -29.594822
20.747538 33.936086 -29.545869
20.539380 34.042571 -29.576859
20.716263 34.134272 -29.528389
20.969928 34.132160 -29.448351
19.208528 31.322215 -25.138038
19.373611 31.309221 -25.314598
19.383229 31.487117 -25.167237
21.187617 34.613603 -29.183476
21.300921 34.421589 -29.188242
21.047387 34.414579 -29.338623
21.447789 34.746270 -28.893492
21.605727 34.704281 -28.723830
21.571434 34.550641 -28.878922
22.022219 34.416824 -27.740920
21.993339 34.454168 -28.013420
21.922245 34.653360 -27.822068
22.042835 34.104561 -27.162465
22.105588 34.029839 -27.367099
22.046074 34.249291 -27.362658
20.685781 30.872913 -28.555682
20.844451 30.767253 -28.441207
20.882545 30.847335 -28.641651
21.973346 34.178186 -26.930524
21.988719 34.327971 -27.147541
21.927446 34.392594 -26.909574
21.128976 32.920704 -25.921049
21.370538 33.018419 -26.023562
21.203969 33.135614 -25.865000
20.625220 32.200581 -26.419533
20.719754 32.332856 -26.259062
20.497569 32.322019 -26.272125
20.474251 32.115229 -26.575721
20.423449 32.223486 -26.412880
20.213507 32.198007 -26.522533
20.338631 32.056982 -26.729898
19.833166 32.017462 -27.780673
19.629206 32.188170 -27.793285
21.874279 34.693592 -28.070306
21.930599 34.493949 -28.252190
20.922846 32.516304 -26.110991
20.999852 32.703781 -25.992852
20.784045 32.586242 -26.028364
19.048466 30.356568 -26.192223
18.773913 30.304107 -26.173519
18.940331 30.233971 -26.340904
20.793710 32.450244 -26.147142
16.576370 30.362806 -29.171898
16.701993 30.553803 -29.273686
16.808989 30.332404 -29.225785
19.743170 32.113281 -28.029644
19.686871 32.395111 -28.639393
20.594423 30.151793 -28.645716
20.550894 30.147491 -28.875237
20.771530 30.292855 -28.765228
20.024957 33.039168 -29.434612
19.970992 37.264125 -28.895414
19.718431 37.362671 -28.953933
19.856279 37.450976 -28.807025
20.652060 37.023403 -28.346677
20.745574 36.824941 -28.406754
20.619504 36.892848 -28.551014
20.741920 36.659846 -28.579708
20.570044 36.733162 -28.762776
18.651275 31.668963 -27.393012
18.541605 31.726128 -27.597598
18.424015 31.827574 -27.416480
18.895878 31.681111 -26.711709
18.623234 31.827580 -26.708609
18.787943 31.798207 -26.492202
19.081283 31.615331 -26.650614
19.015786 31.692251 -26.494815
19.193907 31.602456 -26.543135
19.453589 31.692684 -25.976372
19.419652 31.621043 -26.227950
19.259883 31.724324 -26.112422
19.457621 31.788294 -25.597745
19.588347 31.619669 -25.554968
19.565765 31.677142 -25.781456
18.530697 29.935287 -26.712284
18.460430 30.033149 -26.513561
18.314592 29.877972 -26.749330
21.732760 34.515833 -28.686782
21.705771 34.348313 -28.850231
21.126544 32.518347 -26.162016
21.257700 32.766690 -26.067101
16.947868 29.754755 -28.927768
16.755115 29.876076 -28.962527
16.989797 29.938591 -29.088416
20.183714 30.014653 -29.532955
20.016465 29.885575 -29.361217
19.937798 29.909108 -29.607280
20.759100 33.682292 -29.572161
20.614091 33.397963 -29.589964
20.975909 33.881791 -29.495651
19.520046 31.511154 -25.371966
19.619883 31.446928 -25.543726
19.183897 30.732076 -25.758257
19.425206 30.723973 -25.886110
19.388978 30.888091 -25.698937
19.745008 30.091158 -30.009454
19.780757 29.948166 -29.837346
19.548476 30.021850 -29.966567
21.735345 34.651982 -28.557096
21.846648 34.512397 -28.472704
22.120805 34.181276 -27.957320
19.351070 33.240718 -29.222471
19.413976 33.012136 -29.086899
20.080352 31.950209 -27.209757
20.234170 31.929352 -27.067501
20.051739 32.032731 -27.017321
19.825033 32.181940 -28.468219
19.988609 32.022725 -28.399341
19.873642 32.050284 -28.230129
20.629562 33.185068 -25.578102
20.415319 33.124725 -25.568614
20.522052 32.983420 -25.683024
16.838264 30.727969 -29.358989
16.711110 30.996427 -29.400749
16.963870 30.909153 -29.433632
16.688371 31.224041 -29.454332
16.892348 31.143665 -29.471775
19.704593 31.502779 -25.712608
21.420175 34.192243 -29.198737
21.515041 34.368382 -29.042773
21.947139 34.369689 -28.405075
22.035970 34.296354 -28.225493
22.114393 34.147106 -27.614647
22.022922 34.381959 -27.513646
22.094755 33.880444 -27.197341
21.954392 33.775795 -26.729713
21.994647 33.501429 -26.796181
22.063054 33.689562 -27.011463
19.625414 31.513718 -30.110988
19.817662 31.488696 -30.163238
19.673062 31.254501 -30.190830
20.947476 32.370847 -26.243286
19.872235 32.389918 -28.848690
18.783299 31.623469 -27.182900
18.553810 31.770868 -27.154548
18.707090 31.723246 -26.927319
19.090135 31.557878 -26.828691
19.283217 31.505743 -26.728820
19.747539 31.670124 -30.066719
19.847208 32.563697 -29.019041
19.597966 31.573035 -26.138692
19.694665 31.557118 -25.938089
19.826833 32.763114 -29.182077
20.263934 33.108159 -29.515979
21.637618 34.169645 -29.028845
22.207940 33.940035 -27.808814
21.518444 32.836507 -26.209283
20.872056 32.211555 -26.408381
21.118661 32.319177 -26.323040
19.918808 31.879652 -29.680802
20.112256 31.713367 -29.681750
19.907977 31.804846 -29.910231
16.916742 30.133338 -29.172773
17.113994 30.088335 -29.215267
16.974019 30.526705 -29.337517
20.273834 30.930001 -28.055517
20.304166 30.921507 -28.310930
20.106892 30.974376 -28.229198
18.712707 30.023924 -26.612701
18.703620 29.910617 -26.813090
19.389407 31.542727 -26.487673
19.630737 31.494487 -26.333057
20.761928 30.943881 -28.796684
20.851196 30.976652 -29.017219
20.608623 31.061005 -28.995415
18.944772 31.588638 -26.962667
20.902993 30.448528 -28.542104
20.725493 30.248443 -28.497703
19.131575 31.525086 -24.832727
19.053973 31.364395 -24.956641
19.248228 31.486433 -24.996065
19.953331 31.942467 -27.569279
19.910854 32.246082 -28.698212
18.798894 30.946534 -25.299687
18.986937 31.035522 -25.300615
18.801425 31.068673 -25.146738
19.999449 32.831902 -29.315755
20.500404 33.168447 -29.560502
21.145728 34.015821 -29.407501
21.217244 33.831095 -29.423994
21.816992 34.140482 -28.851417
21.861002 34.318249 -28.648138
18.508426 29.814190 -26.934303
20.685856 30.273539 -29.072080
22.185352 33.875761 -27.553614
20.408406 30.130272 -29.389794
20.254702 30.012104 -29.269484
20.564855 31.979763 -26.767334
20.798673 31.920065 -26.779044
20.988163 31.885775 -26.780426
20.935863 32.026417 -26.626326
19.934175 31.954198 -28.009788
20.042984 32.626524 -29.197526
19.826338 30.264159 -30.106047
19.568466 30.259828 -30.103334
20.232849 32.890000 -29.428247
20.239270 32.694091 -29.329526
13.478713 32.282680 -29.296260
13.579720 32.312755 -29.115159
13.461418 32.115856 -29.088982
17.167139 30.837844 -29.465812
17.021706 30.719854 -29.402280
20.923510 33.421110 -29.562669
20.782536 33.187581 -29.573497
21.440500 33.804639 -29.322064
21.323991 34.010147 -29.322738
17.617655 30.689367 -25.043133
17.501434 30.771601 -24.862070
17.436331 30.599413 -25.095812
22.156887 33.807512 -27.371126
21.762641 33.565168 -26.324166
21.721357 33.296769 -26.298255
21.876784 33.451729 -26.535147
20.718479 32.070891 -26.592913
19.580276 30.939298 -30.193664
19.801294 31.052318 -30.242686
20.144760 31.649004 -29.975532
19.947251 31.646288 -30.074702
20.039450 31.863673 -27.811144
21.078674 33.657520 -29.505336
22.141605 34.074507 -28.230522
22.141379 33.671499 -27.238671
22.105185 33.457897 -27.065455
21.291899 32.414401 -26.299049
20.389261 31.934852 -26.930415
20.621570 31.829581 -26.984481
18.931104 30.120785 -26.520180
18.936329 29.967407 -26.787282
20.059786 31.910208 -28.232990
21.328767 33.627333 -29.421134
22.035553 34.177821 -28.437513
21.676557 33.053979 -26.293055
21.551591 33.233098 -26.110456
20.130723 31.818139 -28.047307
14.326165 30.468883 -25.726666
14.352548 30.278390 -25.570253
14.217154 30.243633 -25.779488
20.015062 30.002020 -29.764055
20.033307 32.090928 -28.597994
20.119359 32.218098 -28.860767
17.048418 30.293533 -29.281985
17.250095 30.213626 -29.314445
17.192259 30.420295 -29.367499
20.412647 32.976253 -29.505126
17.818742 31.228841 -23.838763
18.072986 31.385148 -23.844403
18.018109 31.187053 -23.991104
17.063662 31.259576 -29.529286
17.277277 31.222226 -29.564021
17.123217 31.069498 -29.503300
21.195626 33.421070 -29.503872
22.212655 33.951378 -28.036806
22.261814 33.716908 -27.730443
22.214727 33.642345 -27.463406
21.610092 32.631329 -26.378436
21.382735 32.582306 -26.237220
21.467047 32.415615 -26.394283
14.305517 33.793570 -29.673336
14.476651 33.931844 -29.502561
14.362569 33.736180 -29.472453
17.322824 30.027214 -29.255663
17.203323 29.926486 -29.156172
20.264790 31.717968 -27.856823
20.048193 32.423642 -29.027215
20.452960 32.799691 -29.449603
18.918201 34.008530 -23.351972
18.864142 33.787163 -23.330260
18.762189 33.980714 -23.240395
21.738374 33.948460 -29.045356
22.280094 33.386446 -27.542260
22.200973 33.433103 -27.318772
20.924147 30.455243 -29.016288
16.188278 31.181214 -23.338925
16.242481 31.340454 -23.381766
16.329015 31.303375 -23.232864
20.623521 32.977826 -29.538053
21.036715 33.195947 -29.553588
21.727674 32.847058 -26.411727
21.783589 33.011458 -26.439256
21.431288 31.582653 -28.917242
21.579085 31.451569 -28.832465
21.378418 31.447468 -28.714283
20.921437 31.773447 -26.941902
20.431808 31.832058 -27.103568
20.286734 31.818307 -27.285082
20.546877 31.704044 -27.276925
[...]
POINT_DATA 8455
VECTORS Displacement float
-0.166161 0.027512 -0.145739
-0.135490 0.041418 -0.147891
-0.161467 0.031184 -0.134012
-0.126993 0.044713 -0.131631
-0.075771 0.177735 0.158640
-0.085772 0.158771 0.142968
-0.093016 0.178431 0.159930
-0.039146 0.059601 -0.074279
-0.062460 0.058452 -0.094139
-0.023826 0.066881 -0.092698
-0.048222 0.053704 -0.057332
-0.071789 0.052335 -0.073844
0.021594 0.052890 -0.014949
-0.014314 0.046635 -0.011660
0.002796 0.056466 -0.033964
0.009441 0.044458 0.003863
0.034903 0.049293 -0.000797
0.031659 0.041623 0.017084
0.022225 0.031557 0.037413
0.052257 0.038191 0.028370
0.032718 0.023760 0.052933
0.043212 0.017029 0.063551
0.012184 0.006625 0.076581
0.038937 0.003263 0.080274
0.001580 -0.014162 0.096795
-0.028317 -0.015664 0.100287
-0.039626 -0.035083 0.112976
-0.012184 -0.034130 0.110651
-0.049514 -0.054743 0.122422
-0.082838 -0.076186 0.131169
-0.050680 -0.068571 0.127959
-0.076863 -0.085672 0.133689
-0.114128 -0.101460 0.135851
-0.150128 0.054185 -0.165862
-0.171011 0.052679 -0.171502
-0.166629 0.039083 -0.174963
-0.141017 -0.140903 0.132476
-0.157721 -0.136089 0.128842
-0.123187 -0.121979 0.136523
-0.174889 -0.161970 0.117492
-0.197227 -0.168981 0.105230
-0.192934 -0.158041 0.111322
-0.275219 -0.197724 0.036820
-0.262339 -0.190068 0.054620
-0.259645 -0.201660 0.047668
-0.298235 -0.202861 -0.004635
-0.296688 -0.196539 0.008899
-0.291674 -0.202991 0.009658
-0.243781 0.046987 -0.016518
-0.254251 0.035647 -0.014393
-0.242945 0.030765 0.001451
-0.296846 -0.207586 -0.019776
-0.291719 -0.208971 -0.003759
-0.289146 -0.212794 -0.018626
-0.242276 -0.117304 -0.106251
-0.256638 -0.137719 -0.085638
-0.246069 -0.131914 -0.110000
-0.232920 -0.050881 -0.115867
-0.232954 -0.063956 -0.113538
-0.220669 -0.043819 -0.136075
-0.227051 -0.033229 -0.125579
-0.219549 -0.032886 -0.137620
-0.202807 -0.010607 -0.154267
-0.218431 -0.016982 -0.133302
-0.130866 0.041938 -0.108527
-0.090506 0.054130 -0.112015
-0.245479 -0.194492 0.064306
-0.247799 -0.182749 0.069990
-0.236946 -0.086604 -0.103009
-0.237252 -0.099281 -0.106548
-0.228445 -0.078342 -0.121736
-0.135666 0.150832 -0.138777
-0.103213 0.160793 -0.121781
-0.119131 0.163529 -0.122996
-0.232810 -0.074244 -0.112558
0.136330 0.236294 0.166398
0.128807 0.227997 0.165986
0.123911 0.242196 0.182085
-0.099070 0.048619 -0.090056
-0.036271 0.049489 -0.032907
-0.234023 0.123107 0.008316
-0.223794 0.134409 0.031137
-0.237330 0.094645 0.017028
-0.000457 0.015632 0.064212
-0.032292 -0.261325 0.091214
-0.015131 -0.271271 0.093933
-0.027379 -0.276276 0.078425
-0.080460 -0.253003 0.074577
-0.085874 -0.245241 0.086854
-0.075404 -0.244748 0.089714
-0.083020 -0.236046 0.100008
-0.068544 -0.234062 0.103376
-0.070675 0.112037 -0.163288
-0.050205 0.114172 -0.146002
-0.035715 0.114826 -0.154620
-0.111578 0.097789 -0.203291
-0.070434 0.104820 -0.198091
-0.094443 0.096693 -0.209198
-0.137983 0.090469 -0.206486
-0.128086 0.089249 -0.211085
-0.153307 0.083444 -0.208965
-0.180989 0.053216 -0.210028
-0.180452 0.063257 -0.209550
-0.158183 0.068176 -0.216378
-0.175121 0.040406 -0.208655
-0.192047 0.034231 -0.191232
-0.191465 0.040558 -0.201544
-0.058997 0.188213 -0.057416
-0.057330 0.183751 -0.070239
-0.033892 0.193828 -0.036170
-0.215260 -0.166233 0.097682
-0.211471 -0.155313 0.105131
-0.244144 -0.100747 -0.082384
-0.249100 -0.119190 -0.083699
0.118432 0.261245 0.198868
0.128385 0.258024 0.188227
0.116603 0.259509 0.204516
-0.167014 0.181047 0.110655
-0.156765 0.194925 0.104017
-0.140198 0.198892 0.130980
-0.086300 -0.062492 0.128061
-0.068291 -0.037363 0.118264
-0.116709 -0.088091 0.134351
-0.184146 0.036946 -0.181234
-0.197283 0.037472 -0.179674
-0.156897 0.111224 -0.159943
-0.182606 0.101627 -0.163990
-0.178878 0.087809 -0.166063
-0.107708 0.198942 0.167354
-0.116857 0.204034 0.157346
-0.089276 0.208650 0.175867
-0.216345 -0.174782 0.092796
-0.232548 -0.174897 0.083904
-0.275105 -0.183876 0.047220
0.087030 0.043882 0.022271
0.061924 0.048964 0.006899
-0.189152 0.016191 -0.133543
-0.210070 0.000348 -0.128699
-0.186439 0.014769 -0.145279
-0.078833 0.044360 -0.046681
-0.113909 0.035875 -0.048359
-0.108642 0.042016 -0.068671
-0.195462 -0.086268 -0.176098
-0.176519 -0.064225 -0.194186
-0.193852 -0.069520 -0.174476
0.120036 0.218531 0.162989
0.128790 0.199073 0.146349
0.111830 0.206747 0.156332
0.132629 0.182959 0.137732
0.118052 0.190035 0.143375
-0.206693 0.033321 -0.183292
-0.175375 -0.130943 0.125737
-0.186541 -0.145182 0.118373
-0.245539 -0.173989 0.076775
-0.259070 -0.178354 0.064693
-0.288193 -0.193506 0.025447
-0.283622 -0.203059 0.021446
-0.301055 -0.195544 -0.001959
-0.300692 -0.196695 -0.032487
-0.299647 -0.186129 -0.024519
-0.302554 -0.191962 -0.012737
-0.049314 0.087782 0.059088
-0.061962 0.080304 0.061138
-0.062162 0.103599 0.082630
-0.240776 -0.083147 -0.091914
-0.047135 0.039082 -0.005910
-0.092899 0.107931 -0.179500
-0.059110 0.111432 -0.174952
-0.083590 0.106054 -0.190881
-0.139035 0.094122 -0.200309
-0.165617 0.084457 -0.202680
-0.050439 0.073076 0.046219
-0.023108 0.037503 0.010541
-0.200566 0.049865 -0.201108
-0.208265 0.037982 -0.192311
0.000067 0.034386 0.026477
-0.027534 -0.001259 0.087379
-0.203218 -0.142345 0.114545
-0.284740 -0.180935 0.037414
-0.260644 -0.137007 -0.060817
-0.242456 -0.071855 -0.090519
-0.245461 -0.092877 -0.071660
-0.061808 0.052548 0.021702
-0.087456 0.048133 0.028650
-0.058177 0.057654 0.034131
0.119458 0.252762 0.196173
0.108506 0.255065 0.207767
0.112581 0.232295 0.179417
-0.243534 0.067499 -0.086683
-0.234066 0.072293 -0.062270
-0.219592 0.082224 -0.081402
-0.083507 0.181176 -0.082699
-0.075420 0.186783 -0.062310
-0.179007 0.072773 -0.206527
-0.206837 0.054213 -0.198443
-0.229328 0.039419 0.005284
-0.216196 0.033348 0.024319
-0.204923 0.047995 0.010415
-0.117972 0.101062 -0.193633
-0.248593 0.058672 -0.001096
-0.245093 0.095757 -0.005897
-0.131675 0.036114 -0.164173
-0.128873 0.051405 -0.159659
-0.148728 0.039367 -0.168835
-0.161231 0.031733 -0.119421
-0.070554 0.038818 -0.020188
-0.109694 0.096966 -0.148713
-0.130837 0.085378 -0.156485
-0.107125 0.083727 -0.148862
-0.011749 0.023098 0.049055
-0.057304 -0.019047 0.107002
-0.139728 -0.105821 0.134401
-0.150444 -0.100595 0.134394
-0.224592 -0.151082 0.102317
-0.231602 -0.163549 0.091238
-0.048826 0.193410 -0.032897
-0.221956 0.114161 0.044780
-0.293552 -0.186661 0.021514
-0.191906 0.157128 0.085394
-0.184702 0.175096 0.082184
-0.236955 -0.036363 -0.108266
-0.248273 -0.055765 -0.082156
-0.251363 -0.070075 -0.061574
-0.248263 -0.070517 -0.073674
-0.135775 0.037602 -0.086712
-0.033984 0.025176 0.038426
-0.110738 0.184841 0.161447
-0.085466 0.194172 0.171634
-0.034649 0.007800 0.074847
-0.048470 0.012209 0.064126
0.368087 -0.043480 0.143960
0.374680 -0.041555 0.126459
0.384382 -0.033656 0.114382
0.098161 0.211256 0.164012
0.108294 0.219846 0.168980
-0.112010 -0.060010 0.132369
-0.095236 -0.039081 0.125097
-0.179500 -0.113039 0.130664
-0.163891 -0.116247 0.131038
0.011445 0.121033 -0.096967
0.021166 0.113299 -0.098530
0.024669 0.129787 -0.090688
-0.298387 -0.189312 0.010026
-0.287841 -0.184068 -0.058934
-0.281557 -0.170069 -0.057445
-0.293584 -0.182629 -0.041653
-0.241479 -0.054191 -0.098487
-0.067076 0.133902 0.114164
-0.078794 0.114682 0.100486
-0.081960 0.052296 0.045032
-0.065051 0.064112 0.047702
-0.165350 0.029127 -0.098556
-0.132274 -0.082720 0.135336
-0.265805 -0.171707 0.063022
-0.300479 -0.187599 0.002571
-0.299585 -0.182297 -0.005745
-0.247599 -0.106401 -0.060251
-0.225661 -0.016552 -0.120185
-0.243970 -0.035481 -0.094119
-0.112704 0.171815 -0.109020
-0.104029 0.180493 -0.085518
-0.140386 0.031492 -0.061910
-0.165667 -0.097533 0.135834
-0.252353 -0.167821 0.076113
-0.273257 -0.155679 -0.054045
-0.269991 -0.158698 -0.074944
-0.165823 0.025961 -0.075493
0.221035 0.130017 -0.245034
0.176852 0.118710 -0.203647
0.186446 0.118267 -0.188312
-0.142362 0.191580 0.138855
-0.101707 0.033072 -0.026006
-0.086559 0.026802 0.006267
0.110282 0.245867 0.195785
0.098705 0.249074 0.207545
0.099841 0.238505 0.193399
-0.052447 -0.006053 0.094526
0.004858 0.034359 -0.066037
-0.008286 0.022952 -0.078697
-0.009709 0.034247 -0.070996
0.107638 0.181624 0.138486
0.092023 0.182574 0.138721
0.101583 0.195002 0.148800
-0.148626 -0.078670 0.138672
-0.275955 -0.174078 0.051306
-0.287614 -0.175908 0.033743
-0.295427 -0.181145 0.017606
-0.257292 -0.130729 -0.041364
-0.251235 -0.118106 -0.060780
-0.249547 -0.114915 -0.043717
0.280183 -0.088870 0.219136
0.284949 -0.086444 0.214561
0.293631 -0.085980 0.211753
0.096176 0.255586 0.217563
0.104377 0.259314 0.215172
-0.196790 0.014732 -0.083077
-0.055693 0.028358 0.020615
-0.065860 -0.003491 0.090803
0.051399 -0.008330 -0.216528
0.042058 -0.009063 -0.214340
0.057211 -0.010814 -0.216005
-0.214874 -0.137260 0.114056
-0.288794 -0.169446 0.026260
-0.295673 -0.176803 0.011272
-0.227247 0.068457 0.034088
0.103122 0.066886 -0.129875
0.113119 0.072046 -0.155634
0.095185 0.060825 -0.121436
-0.079221 -0.019926 0.111253
-0.128715 -0.057147 0.136688
-0.268174 -0.146458 -0.039773
-0.276589 -0.157458 -0.040444
-0.200188 -0.051553 0.075642
-0.201885 -0.060169 0.068565
-0.212918 -0.048868 0.055783
-0.253537 -0.060947 -0.062798
-0.230908 -0.015858 -0.109232
-0.215534 0.000993 -0.114518
-0.241077 -0.020944 -0.091275
-0.178120 0.159851 0.106138
-0.211222 0.060312 -0.195105
-0.189197 0.013934 -0.057270
-0.112666 -0.036403 0.128025
-0.193037 -0.110157 0.132049
-0.205849 -0.124523 0.123326
-0.290180 -0.171640 -0.025771
-0.283143 -0.161337 -0.010810
-0.293864 -0.173706 -0.010437
-0.110100 0.166093 0.149304
-0.277382 -0.156531 -0.027140
-0.247385 -0.102856 -0.048196
-0.247833 -0.086871 -0.060382
-0.206684 0.040652 -0.172803
-0.219128 0.032820 -0.174732
0.252829 -0.067714 0.133653
0.252591 -0.060001 0.132751
0.248266 -0.057166 0.123329
-0.161349 0.023065 -0.053633
-0.130176 0.017978 -0.001649
-0.163017 -0.077817 0.142165
-0.178034 -0.094030 0.138794
-0.214812 -0.120623 0.124872
-0.233778 -0.145361 0.102410
-0.225551 -0.134143 0.113304
0.086940 0.240689 0.203341
0.100671 0.171355 0.130645
0.086080 0.168976 0.126403
0.142081 0.100649 0.085890
0.129895 0.097045 0.070969
0.120423 0.112257 0.086486
-0.287372 -0.170778 0.032193
-0.280426 -0.165495 0.044475
-0.267845 -0.145617 -0.010374
0.185696 0.040598 -0.429202
0.182750 0.054327 -0.413017
0.160364 0.025637 -0.422114
-0.042448 0.205433 0.177828
-0.063493 0.208154 0.182250
-0.045425 0.220730 0.189569
-0.077844 0.068851 0.059422
-0.251356 -0.123801 -0.025328
-0.245745 -0.110122 -0.029071
-0.249442 -0.083183 -0.048550
-0.139574 0.024410 -0.032508
-0.012571 0.046495 -0.067592
-0.028140 0.048786 -0.072392
-0.012649 0.058565 -0.064910
-0.103459 -0.020380 0.112506
-0.085835 -0.000894 0.081334
0.243227 0.137318 -0.190221
0.253251 0.139342 -0.219643
0.275809 0.143179 -0.191207
-0.207817 0.099039 -0.163132
-0.206424 0.084782 -0.165169
-0.188830 0.111192 -0.162145
-0.077963 0.188527 -0.051489
0.109721 0.107102 0.072627
0.103401 0.117929 0.083566
0.005621 0.142875 -0.084135
0.002411 0.153691 -0.076172
-0.013846 0.142797 -0.092122
0.087323 0.063016 -0.100915
0.073806 0.055867 -0.082049
0.074300 0.061813 -0.077815
-0.279173 -0.169601 0.047780
-0.284559 -0.162091 0.003556
-0.293022 -0.171770 0.004924
-0.263216 -0.139936 -0.023965
-0.219878 0.058401 -0.165146
-0.201828 0.073034 -0.166492
-0.105984 0.183255 -0.073490
-0.239628 0.047005 0.014286
-0.248423 0.033186 0.000877
-0.242560 -0.017482 -0.076560
-0.227628 -0.004865 -0.094890
-0.198892 0.014279 -0.104685
-0.223019 0.000100 -0.083799
-0.217162 0.002269 -0.064131
-0.207487 0.001262 -0.035810
-0.084668 0.017589 0.034442
-0.116432 0.010107 0.033606
-0.068948 0.015137 0.049682
-0.147553 -0.058151 0.141360
-0.200426 -0.105187 0.135322
-0.287186 -0.165583 0.020909
-0.243527 -0.093813 -0.022227
-0.240675 -0.106124 -0.016516
-0.246088 -0.097507 -0.036127
0.105781 0.092574 -0.164235
0.108902 0.087642 -0.158316
0.095029 0.088976 -0.132636
0.149608 0.005551 -0.295960
0.150912 0.004833 -0.316843
0.138242 -0.005224 -0.295835
-0.173229 0.012725 -0.028729
-0.135437 -0.042094 0.133780
-0.247266 -0.148652 0.092657
-0.246793 -0.140153 0.098228
-0.238766 -0.140014 0.103968
-0.268374 -0.161913 0.064430
-0.271940 -0.158709 0.058173
-0.270087 -0.148236 0.005318
-0.252661 -0.129941 -0.009573
-0.243442 -0.116581 -0.013283
-0.251444 -0.077291 -0.043163
-0.254251 -0.045550 -0.068520
-0.254799 -0.068343 -0.041146
-0.240516 -0.014771 -0.060431
0.083270 0.155467 0.113574
0.067086 0.164294 0.117635
-0.271883 -0.155106 0.054659
-0.265446 -0.150209 0.065300
-0.240450 -0.120114 0.001952
-0.253198 -0.133270 0.006117
-0.174916 -0.243603 0.006230
-0.185106 -0.242397 0.018789
-0.171485 -0.244792 0.017219
-0.253934 -0.035762 -0.064355
0.115550 0.094567 0.055728
-0.153673 0.015220 -0.015416
-0.168052 0.004191 0.004930
-0.263027 -0.150901 0.072429
-0.257582 -0.150878 0.081531
0.263708 -0.079539 0.196447
0.259582 -0.068673 0.174316
0.260894 -0.075435 0.182465
-0.278808 -0.158241 0.036535
-0.271989 -0.150413 0.019445
-0.139049 -0.003467 0.053416
-0.122907 -0.000267 0.057821
-0.115881 -0.013635 0.096172
-0.102591 0.003685 0.061425
-0.150254 -0.044830 0.133632
-0.152651 -0.038396 0.122356
-0.133103 -0.030776 0.120844
-0.185296 -0.091327 0.141286
-0.220900 -0.115359 0.127430
-0.234604 -0.130331 0.112833
-0.253063 -0.141068 0.088617
-0.281065 -0.162413 0.039546
-0.275621 -0.154163 0.029585
-0.283800 -0.161382 0.015777
-0.233826 -0.104167 -0.003493
0.112358 0.044286 -0.356514
0.081560 0.035685 -0.341340
0.088308 0.021907 -0.355738
-0.233739 -0.013049 -0.038016
-0.168685 -0.064092 0.144285
-0.178036 -0.079757 0.144837
-0.160912 -0.246551 0.021798
-0.162717 -0.245648 0.008817
-0.246925 -0.084124 -0.021963
-0.257567 -0.056199 -0.041710
-0.256821 -0.044178 -0.038972
0.149569 0.107119 -0.240095
0.179792 0.123732 -0.287282
0.174516 0.119018 -0.274597
-0.078183 0.091818 0.079569
-0.105551 0.109620 -0.155901
-0.100508 0.109047 -0.168078
-0.130905 0.105012 -0.169591
-0.251883 -0.029402 -0.054874
-0.201595 -0.098085 0.139511
0.131814 0.104983 -0.069092
0.119708 0.111651 -0.074334
0.117838 0.104745 -0.052269
-0.241742 -0.130398 0.106262
-0.256345 -0.141689 0.078366
-0.236517 -0.111485 -0.004075
-0.198292 -0.003066 -0.007331
-0.143623 0.004703 0.026581
-0.167222 -0.008621 0.041673
-0.259349 -0.139759 0.017081
0.261263 -0.061981 0.185222
0.260524 -0.065712 0.180785
0.263976 -0.072850 0.195375
-0.249913 -0.029650 -0.035904
-0.221466 -0.010886 -0.017893
0.288618 -0.079197 0.200549
0.284781 -0.067105 0.194032
0.292690 -0.082452 0.205473
-0.250586 -0.075250 -0.020276
-0.220204 -0.021752 0.012689
-0.240091 -0.027512 -0.010369
0.085926 0.249113 0.215642
-0.198985 0.037257 0.031220
0.350634 -0.056635 0.160324
0.334409 -0.065726 0.179181
0.352783 -0.057407 0.151211
-0.206984 0.128769 0.068024
-0.216721 0.097908 0.052686
-0.131328 0.068524 -0.158101
0.174316 0.123629 -0.252767
0.203091 0.133335 -0.290155
0.163593 0.120561 -0.253357
0.063254 0.214128 0.175529
0.080701 0.214948 0.172757
0.065658 0.197817 0.154450
-0.074181 0.112693 -0.145860
-0.077505 0.111275 -0.122921
-0.049993 0.113162 -0.123663
-0.107907 0.145602 0.132696
-0.091774 0.132017 0.119494
-0.097196 0.106088 0.097043
-0.245513 -0.129645 0.022490
-0.235907 -0.120865 0.015824
-0.234456 -0.097042 -0.004574
-0.238035 -0.089231 -0.005204
-0.224308 -0.098562 0.008194
-0.192136 -0.084611 0.144413
-0.214495 -0.104198 0.134243
-0.228708 -0.116921 0.121647
-0.018629 0.014184 -0.090491
-0.026879 0.023040 -0.082991
-0.260544 -0.144141 0.066332
-0.266462 -0.147168 0.043316
-0.268010 -0.149357 0.051513
0.367396 -0.038446 0.150097
0.376236 -0.036725 0.135015
0.383618 -0.029654 0.123660
-0.193019 0.135038 0.087535
0.217591 0.087566 -0.078895
0.178114 0.081269 -0.047774
0.182589 0.073174 -0.032862
-0.262607 -0.143646 0.035534
-0.144430 -0.118671 0.133321
-0.254306 -0.062615 -0.019964
-0.253438 -0.049689 -0.015685
-0.162721 0.156575 0.125226
-0.157477 0.148977 0.131051
-0.146968 0.170564 0.144110
-0.226684 0.098108 -0.158101
-0.226424 0.082380 -0.161638
-0.207948 0.111209 -0.159674
-0.137687 -0.024203 0.105794
-0.168428 -0.048073 0.123554
-0.168128 -0.055895 0.137037
0.111788 0.150753 0.049377
0.118770 0.150194 0.051317
0.113159 0.140089 0.039494
0.016027 0.029618 -0.068475
0.005245 0.021586 -0.078712
-0.254389 -0.137001 0.028783
0.114155 0.097560 -0.026916
0.108252 0.104000 -0.029505
0.109954 0.101535 -0.020205
0.174199 0.093244 0.015840
0.181016 0.098496 0.028214
0.184178 0.081482 0.013055
0.109683 0.130505 0.028206
0.106798 0.140584 0.036551
0.136966 0.092001 0.000880
0.142662 0.075439 -0.007813
0.132753 0.087519 -0.003477
0.109119 0.106162 -0.004931
0.112685 0.099675 -0.013430
0.105908 0.107029 -0.012918
0.184828 0.118041 0.064505
0.183395 0.128780 0.083444
0.194470 0.111494 0.076820
0.093420 0.115930 0.075283
0.080100 0.117355 0.070057
0.088451 0.128249 0.087935
0.207252 0.104370 0.123170
0.221748 0.085083 0.137521
0.219484 0.089920 0.122393
0.147199 0.126648 0.034110
0.153248 0.135973 0.047270
0.156895 0.116389 0.027730
0.021412 0.171048 0.112410
0.037799 0.180339 0.132097
0.032708 0.170587 0.109662
0.236111 0.072571 0.115653
0.227184 0.079401 0.096516
0.222834 0.086032 0.111930
0.161756 0.096130 0.010710
0.167261 0.108868 0.026649
-0.071836 -0.044449 -0.189340
-0.056804 -0.046045 -0.198920
-0.084449 -0.058331 -0.186801
-0.232365 0.052750 -0.182711
-0.210647 0.068500 -0.191366
0.207331 0.082707 0.046299
0.192381 0.094613 0.038996
0.197023 0.100397 0.058454
0.199577 0.066202 0.013853
0.195690 0.081055 0.025000
0.211868 0.068956 0.031779
-0.158570 0.044159 0.029554
-0.185705 0.043687 0.024820
-0.180883 0.036445 0.039932
-0.252350 -0.137021 0.049030
-0.245166 -0.131985 0.043178
-0.151271 0.032710 -0.161279
0.155037 0.158453 0.076674
0.158223 0.166106 0.092195
0.162233 0.149100 0.072752
-0.177311 0.003217 0.054478
-0.185997 0.013102 0.048324
-0.179921 -0.010205 0.045702
-0.168632 -0.005255 0.060573
-0.173305 0.021673 0.064471
-0.182434 0.026450 0.058119
-0.163556 -0.039102 0.057335
-0.156862 -0.044215 0.069019
-0.162103 -0.027013 0.063264
-0.164347 0.006371 0.066530
-0.162853 0.031229 0.072935
-0.030190 0.054150 0.048342
-0.010302 0.057986 0.040849
-0.022529 0.063370 0.048733
-0.153421 -0.056594 0.075498
-0.151942 -0.048623 0.081001
-0.035106 0.063365 0.054804
-0.148782 -0.038894 0.085246
-0.154344 -0.031964 0.074083
-0.114986 0.017449 0.075446
-0.111164 0.041779 0.074177
-0.129782 0.025712 0.075359
0.155940 0.059681 0.009380
0.167812 0.068728 -0.002616
0.173505 0.056289 0.018442
-0.140506 0.044026 0.079261
-0.141816 0.065444 0.087877
-0.154789 0.054296 0.082413
0.031533 0.096220 0.056467
0.040555 0.104672 0.065429
0.023667 0.106493 0.070145
0.022769 0.085489 0.046870
0.022778 0.073847 0.036112
0.037905 0.077484 0.034662
-0.169079 0.064106 0.082824
-0.155296 0.087191 0.098504
-0.167941 0.099194 0.100558
0.384981 0.063058 0.028466
0.389084 0.071195 0.041253
0.392589 0.087859 0.017434
0.057899 0.101194 0.061062
0.077246 0.097968 0.059579
0.065015 0.109994 0.074577
-0.147799 0.027533 0.075388
-0.228222 0.005497 -0.029917
-0.218842 -0.016636 -0.018811
-0.224398 0.010119 -0.021115
-0.213680 0.021787 0.004387
-0.215115 0.045089 0.006346
-0.218301 0.037111 -0.002575
-0.195910 -0.040479 -0.000841
-0.189225 -0.057113 -0.006594
-0.182944 -0.056629 0.001148
-0.215737 0.063236 0.002743
-0.211185 0.068635 0.017312
-0.197676 0.013450 0.031354
-0.191386 -0.012296 0.027572
-0.189694 0.001150 0.037664
-0.189051 0.075324 0.070870
-0.188552 0.040986 0.057212
-0.181095 0.051019 0.069482
-0.183909 0.110793 0.089800
-0.193243 0.094636 0.069253
0.099372 0.063632 0.018324
0.109195 0.057735 0.018315
0.119433 0.060980 0.018660
0.048394 0.182998 0.168154
0.041204 0.163443 0.141362
0.055223 0.165331 0.144252
-0.078222 -0.017162 0.098850
-0.103307 -0.031256 0.108743
-0.086725 -0.029210 0.100788
0.080386 0.033021 -0.171975
0.098531 0.042748 -0.193014
0.097400 0.034128 -0.202538
-0.172402 0.041645 0.072040
-0.081294 -0.006580 0.096958
-0.089092 -0.005493 0.097267
-0.101056 -0.018362 0.108123
-0.116068 -0.044936 0.108250
-0.130218 -0.046788 0.115962