# vtk DataFile Version 3.0
3D Unstructured Surface
ASCII
DATASET UNSTRUCTURED_GRID
POINTS 8455 float
19.934914 32.004328 -27.321609
19.776860 32.089989 -27.417657
19.932324 31.955179 -27.520139
19.772623 32.055102 -27.654118
19.531755 30.486825 -30.223298
19.700192 30.622381 -30.281577
19.696689 30.410748 -30.233178
19.570160 32.316771 -28.352039
19.598961 32.231750 -28.142426
19.434246 32.399790 -28.161441
19.681636 32.271345 -28.508650
19.717188 32.169418 -28.340055
19.574283 32.653613 -28.929059
19.751763 32.482468 -28.926011
19.562381 32.526566 -28.747245
19.730464 32.648151 -29.075054
19.589094 32.763158 -29.061012
19.702979 32.822366 -29.198461
19.854734 32.886717 -29.322570
19.665319 33.000806 -29.294805
19.883861 33.072354 -29.419777
19.878698 33.245883 -29.475470
20.087455 33.192587 -29.500050
19.962357 33.428613 -29.528053
20.214857 33.443460 -29.543246
20.376816 33.251938 -29.533225
20.479723 33.476458 -29.538280
20.324594 33.654106 -29.544040
20.558320 33.710889 -29.520391
20.769671 33.810332 -29.471550
20.574278 33.913580 -29.497446
20.741009 34.001270 -29.452102
20.981212 33.999831 -29.381266
19.188513 31.285346 -25.268776
19.352199 31.268817 -25.446141
19.363918 31.443250 -25.300046
21.194450 34.473620 -29.138722
21.301961 34.287263 -29.144518
21.057423 34.275307 -29.280220
21.448413 34.612514 -28.868990
21.601370 34.575002 -28.707007
21.566930 34.421933 -28.854538
21.989521 34.288831 -27.737714
21.968833 34.329704 -28.006056
21.894005 34.521910 -27.826970
21.990999 33.971691 -27.162883
22.059936 33.902462 -27.357396
22.000939 34.117522 -27.362380
20.690886 30.818969 -28.674630
20.846067 30.710015 -28.554933
20.891936 30.788671 -28.755054
21.915999 34.040618 -26.943029
21.937932 34.191178 -27.158479
21.871504 34.251830 -26.932934
21.064140 32.819449 -26.023923
21.297605 32.910249 -26.105148
21.134027 33.023719 -25.961044
20.594265 32.133453 -26.559116
20.682296 32.260665 -26.392240
20.469458 32.254684 -26.421904
20.451461 32.052837 -26.724595
20.400391 32.160057 -26.566585
20.200843 32.139797 -26.687752
20.323463 31.998490 -26.884929
19.856944 31.971443 -27.921376
19.663547 32.143079 -27.933885
21.853799 34.564730 -28.070537
21.912565 34.371050 -28.242269
20.873816 32.434696 -26.228602
20.943827 32.613773 -26.105361
20.738883 32.504646 -26.158004
19.033828 30.350031 -26.296797
18.767496 30.305385 -26.273815
18.929392 30.234357 -26.440174
20.750929 32.373138 -26.274993
16.636859 30.463976 -29.203395
16.755777 30.638134 -29.322766
16.862385 30.430693 -29.260334
19.776931 32.067006 -28.158615
19.741493 32.340643 -28.730117
20.577435 30.122907 -28.744298
20.537175 30.121636 -28.970690
20.764048 30.253096 -28.865598
20.088496 32.958602 -29.434815
19.957554 37.089268 -28.915903
19.708080 37.177334 -28.967519
19.836556 37.268291 -28.826746
20.636392 36.870023 -28.394758
20.738439 36.677132 -28.448811
20.612090 36.741996 -28.587763
20.743386 36.514470 -28.610093
20.571990 36.583693 -28.786812
18.666782 31.639300 -27.556752
18.559774 31.694829 -27.755803
18.445839 31.792951 -27.577813
18.906732 31.647676 -26.888972
18.642568 31.792900 -26.886578
18.802950 31.762703 -26.673360
19.086688 31.580134 -26.826924
19.023428 31.656072 -26.673636
19.195983 31.564854 -26.718792
19.446941 31.645855 -26.143911
19.414547 31.576827 -26.398674
19.259858 31.681634 -26.287780
19.449414 31.739296 -25.757880
19.572591 31.569712 -25.701501
19.554224 31.627497 -25.939399
18.532965 29.958789 -26.796676
18.464656 30.053398 -26.600600
18.323449 29.910538 -26.829360
21.723907 34.391454 -28.668786
21.696615 34.225334 -28.824337
21.070980 32.433903 -26.263061
21.192199 32.670826 -26.158661
17.000757 29.879786 -28.925978
16.814437 30.002343 -28.961559
17.040825 30.055279 -29.098816
20.174068 30.009727 -29.606222
20.001090 29.890561 -29.430518
19.926322 29.916958 -29.670943
20.780049 33.566620 -29.502963
20.643905 33.295572 -29.532957
20.985432 33.757800 -29.427838
19.501079 31.463907 -25.509177
19.599601 31.398526 -25.681374
19.163754 30.710535 -25.876507
19.400575 30.697226 -26.005340
19.364956 30.857374 -25.822207
19.741903 30.101882 -30.069262
19.773007 29.961401 -29.895634
19.543999 30.042545 -30.022399
21.726404 34.525861 -28.545121
21.833689 34.389663 -28.459548
22.094669 34.063043 -27.939352
19.443986 33.155655 -29.251670
19.499094 32.936282 -29.134269
20.083004 31.899297 -27.365750
20.228386 31.874902 -27.220972
20.052720 31.981357 -27.179719
19.867270 32.131588 -28.572315
20.021611 31.972654 -28.508246
19.906550 32.002233 -28.348693
20.586612 33.083003 -25.725335
20.385518 33.031411 -25.733492
20.485566 32.892588 -25.837844
16.885361 30.795928 -29.422857
16.758700 31.045222 -29.478101
17.004866 30.960254 -29.510095
16.734696 31.254867 -29.541198
16.933037 31.177471 -29.557641
19.685798 31.451970 -25.855728
21.415159 34.064550 -29.154658
21.509870 34.240211 -29.008988
21.931504 34.250560 -28.388666
22.016473 34.178433 -28.208645
22.077320 34.022768 -27.602334
21.983033 34.250479 -27.514952
22.042837 33.752421 -27.188947
21.888570 33.642643 -26.739985
21.927768 33.375870 -26.803148
22.003921 33.562113 -27.007539
19.661463 31.475406 -30.192975
19.855483 31.447779 -30.244013
19.702077 31.223906 -30.270497
20.901136 32.293668 -26.358234
19.924991 32.332779 -28.924623
18.795890 31.593941 -27.351724
18.572826 31.738366 -27.323053
18.722723 31.691224 -27.101263
19.095087 31.524416 -27.002697
19.282723 31.468825 -26.901533
19.789751 31.625710 -30.148829
19.907039 32.501464 -29.079003
19.587102 31.524971 -26.301653
19.679472 31.506378 -26.091700
19.893453 32.694378 -29.223670
20.314845 33.022297 -29.494213
21.627899 34.047280 -28.993791
22.178272 33.824976 -27.784242
21.446423 32.735966 -26.279371
20.832131 32.139802 -26.529164
21.068746 32.241430 -26.424369
19.966342 31.828620 -29.765176
20.155790 31.662274 -29.768141
19.954835 31.755449 -29.992527
16.968847 30.241810 -29.194928
17.160094 30.193792 -29.240185
17.019770 30.607104 -29.390742
20.266624 30.885565 -28.193190
20.301550 30.877938 -28.443022
20.103714 30.935846 -28.367395
18.709266 30.038461 -26.702192
18.700505 29.930900 -26.898520
19.385602 31.501529 -26.659500
19.619597 31.447447 -26.496533
20.776165 30.887809 -28.912485
20.873049 30.919172 -29.130745
20.628970 31.008352 -29.110134
18.953569 31.557441 -27.135558
20.898591 30.398348 -28.645798
20.710709 30.210517 -28.599205
19.114097 31.485710 -24.962774
19.035930 31.329816 -25.087551
19.229436 31.445509 -25.126797
19.967503 31.894816 -27.716968
19.956730 32.192382 -28.786633
18.785893 30.927347 -25.425527
18.969495 31.010220 -25.428093
18.787609 31.046136 -25.275703
20.060945 32.759192 -29.338179
20.537396 33.077247 -29.521777
21.148279 33.888342 -29.346765
21.215796 33.709677 -29.364547
21.804937 34.023093 -28.821577
21.848744 34.199230 -28.626517
18.511337 29.844885 -27.014128
20.682150 30.239165 -29.169642
22.146452 33.756076 -27.533050
20.401587 30.112621 -29.474127
20.241159 30.003939 -29.349517
20.542154 31.917459 -26.907845
20.769422 31.854047 -26.903096
20.954504 31.817339 -26.890756
20.899197 31.957168 -26.741472
19.958599 31.906709 -28.139454
20.098497 32.560106 -29.237399
19.828249 30.266360 -30.170653
19.569747 30.272177 -30.165382
20.283892 32.812794 -29.428776
20.287856 32.623300 -29.349033
13.594165 32.164399 -29.406019
13.698463 32.196303 -29.234910
13.585537 32.005650 -29.197739
17.203361 30.890319 -29.542050
17.063475 30.784556 -29.469213
20.935380 33.314649 -29.502074
20.803122 33.092107 -29.524681
21.431589 33.685851 -29.270622
21.319916 33.884750 -29.269811
17.638026 30.692914 -25.148870
17.522743 30.772730 -24.969686
17.461101 30.609088 -25.193790
22.110962 33.684866 -27.354565
21.687860 33.434562 -26.358330
21.644480 33.175514 -26.341311
21.803930 33.325741 -26.557588
20.687407 32.004437 -26.724575
19.599135 30.923662 -30.270300
19.826126 31.026044 -30.320350
20.189494 31.599234 -30.058080
19.990764 31.599562 -30.156131
20.054845 31.814890 -27.948309
21.082594 33.541450 -29.441932
22.122865 33.962741 -28.205424
22.089965 33.548809 -27.224846
22.046204 33.337229 -27.059227
21.235162 32.332264 -26.387456
20.375486 31.876746 -27.078907
20.601563 31.767325 -27.118199
18.920792 30.125983 -26.615615
18.925958 29.979319 -26.877753
20.085074 31.860456 -28.351084
21.322425 33.512435 -29.364743
22.020025 34.064035 -28.414339
21.600298 32.943125 -26.345965
21.474475 33.114485 -26.172290
20.148292 31.767757 -28.173755
14.421434 30.517799 -25.818745
14.431354 30.326381 -25.641499
14.299356 30.291268 -25.836585
20.007714 30.004406 -29.829330
20.070723 32.038585 -28.694100
20.161514 32.161537 -28.936682
17.094739 30.388418 -29.320212
17.291068 30.308033 -29.352641
17.232912 30.502939 -29.418838
20.454571 32.893834 -29.486558
17.821060 31.205806 -23.937939
18.071000 31.356323 -23.947533
18.015903 31.165217 -24.093974
17.098744 31.281210 -29.620560
17.307211 31.242845 -29.656520
17.158062 31.104846 -29.589173
21.194469 33.312842 -29.446124
22.189977 33.840346 -28.009326
22.230011 33.604986 -27.701783
22.172137 33.525515 -27.441002
21.542098 32.539777 -26.443606
21.319265 32.493398 -26.318926
21.406950 32.332691 -26.470969
14.395074 33.661673 -29.773563
14.570030 33.799986 -29.603989
14.456587 33.603493 -29.581742
17.362732 30.129593 -29.282686
17.247334 30.037110 -29.172664
20.273065 31.664829 -27.988446
20.098404 32.363073 -29.087109
20.492186 32.722973 -29.444902
18.988296 33.957868 -23.511645
18.928756 33.733206 -23.474860
18.835471 33.929411 -23.394461
21.725564 33.831991 -29.007177
22.240137 33.277290 -27.517041
22.151623 33.317903 -27.301451
20.930787 30.406834 -29.119383
16.220185 31.155457 -23.435547
16.279613 31.310946 -23.491242
16.359177 31.271220 -23.324110
20.653844 32.892714 -29.508826
21.043991 33.097175 -29.501293
21.654534 32.745777 -26.464180
21.708515 32.902597 -26.482777
21.448944 31.511144 -28.991869
21.597250 31.379791 -28.911260
21.393951 31.376505 -28.799483
20.893509 31.706356 -27.055822
20.419729 31.773800 -27.246504
20.282738 31.763567 -27.431210
20.534888 31.643686 -27.410817
[...]
POINT_DATA 8455
VECTORS Displacement float
-0.174914 0.076072 0.016709
-0.153860 0.087411 0.015157
-0.173624 0.078821 0.021739
-0.149623 0.089998 0.021818
-0.082355 0.172075 0.226298
-0.097092 0.164919 0.214077
-0.098389 0.176152 0.226278
-0.090060 0.109429 0.040739
-0.105661 0.105250 0.034326
-0.077446 0.116710 0.031441
-0.097936 0.104455 0.049050
-0.113988 0.100282 0.044155
-0.050583 0.117287 0.055559
-0.076263 0.106332 0.062311
-0.062681 0.115334 0.051945
-0.060064 0.110049 0.062454
-0.041994 0.118342 0.057112
-0.044879 0.113734 0.060361
-0.051034 0.107183 0.062670
-0.030719 0.117294 0.056705
-0.043061 0.107146 0.057177
-0.035198 0.107917 0.050670
-0.053955 0.097213 0.053950
-0.036157 0.103287 0.043853
-0.057457 0.089640 0.045046
-0.076016 0.081262 0.055525
-0.080423 0.073642 0.049680
-0.063794 0.080994 0.041340
-0.085120 0.065411 0.047991
-0.104971 0.049568 0.056850
-0.085578 0.060420 0.048546
-0.101609 0.047330 0.057402
-0.125412 0.030869 0.068766
-0.130113 0.091054 -0.035124
-0.149599 0.093083 -0.039959
-0.147318 0.082950 -0.042154
-0.147850 -0.000920 0.087722
-0.158761 -0.001763 0.085118
-0.133223 0.017293 0.078120
-0.175513 -0.028214 0.092990
-0.192870 -0.039702 0.088407
-0.188430 -0.029333 0.086938
-0.242521 -0.069731 0.033614
-0.237833 -0.065604 0.047256
-0.231405 -0.070210 0.052570
-0.246399 -0.069991 -0.004217
-0.251036 -0.069162 -0.000804
-0.246539 -0.071222 0.009380
-0.248886 0.100931 0.102430
-0.255867 0.092885 0.099333
-0.252336 0.089429 0.114854
-0.239499 -0.070018 -0.007271
-0.240932 -0.072178 0.007179
-0.233204 -0.072030 0.004734
-0.177440 -0.016049 -0.003377
-0.183705 -0.029549 -0.004052
-0.176127 -0.020019 -0.013956
-0.201965 0.016247 0.023716
-0.195496 0.008235 0.019640
-0.192558 0.023516 0.013704
-0.204261 0.029163 0.023295
-0.196491 0.030543 0.016085
-0.190143 0.047603 0.010952
-0.203263 0.041510 0.021729
-0.154644 0.087957 0.032176
-0.124847 0.099221 0.028585
-0.224999 -0.065630 0.064537
-0.229765 -0.059850 0.060069
-0.187916 -0.004996 0.014602
-0.181227 -0.009273 0.005961
-0.183283 0.003254 0.007904
-0.121028 0.157369 -0.034203
-0.096796 0.159515 -0.021485
-0.108192 0.163143 -0.023726
-0.190029 0.002862 0.015293
0.075841 0.135124 0.197895
0.075023 0.143666 0.215066
0.070515 0.143907 0.216634
-0.132831 0.094894 0.038915
-0.090893 0.103957 0.057817
-0.217035 0.151993 0.106898
-0.210075 0.160264 0.126590
-0.229848 0.134404 0.117398
-0.063996 0.096198 0.064415
-0.018854 -0.086468 0.111703
-0.004780 -0.085934 0.107519
-0.007656 -0.093591 0.098146
-0.064792 -0.099623 0.122658
-0.078739 -0.097432 0.128911
-0.067990 -0.093896 0.126463
-0.084486 -0.090670 0.130393
-0.070490 -0.084593 0.127412
-0.086182 0.141700 0.000452
-0.068374 0.145471 0.012203
-0.057539 0.149449 0.006713
-0.122432 0.131224 -0.026028
-0.089768 0.139500 -0.020122
-0.109450 0.132197 -0.028040
-0.143388 0.125666 -0.030176
-0.135728 0.125428 -0.032264
-0.155383 0.121046 -0.033308
-0.174341 0.100045 -0.042489
-0.175347 0.107473 -0.038826
-0.158158 0.110866 -0.041020
-0.166914 0.089404 -0.048520
-0.176291 0.084188 -0.044699
-0.179924 0.090203 -0.043601
-0.061265 0.164711 0.026976
-0.061556 0.163502 0.016800
-0.042749 0.161262 0.043860
-0.206407 -0.041854 0.079686
-0.202315 -0.032334 0.079237
-0.188580 -0.016303 0.018661
-0.183599 -0.023326 0.007861
0.065543 0.136214 0.197078
0.069063 0.131757 0.187259
0.065575 0.142821 0.214916
-0.157368 0.185973 0.183922
-0.141390 0.189939 0.173318
-0.128722 0.191042 0.194643
-0.107249 0.053180 0.058863
-0.098105 0.065028 0.061257
-0.126232 0.035900 0.066538
-0.165179 0.084193 -0.044023
-0.177001 0.085874 -0.042026
-0.136754 0.132765 -0.041693
-0.157975 0.128374 -0.044760
-0.154856 0.118526 -0.042793
-0.104603 0.188218 0.227162
-0.109107 0.190799 0.215634
-0.084799 0.187955 0.231699
-0.207404 -0.048661 0.080821
-0.219589 -0.052163 0.070748
-0.248969 -0.065643 0.029252
-0.005886 0.128945 0.051470
-0.023194 0.124818 0.054269
-0.191804 0.067103 0.022450
-0.204286 0.054798 0.024772
-0.187420 0.066143 0.017119
-0.121070 0.094712 0.057415
-0.146911 0.085946 0.060546
-0.141550 0.090067 0.049893
-0.152512 0.015797 -0.028865
-0.146718 0.029089 -0.029308
-0.157366 0.021312 -0.019656
0.072939 0.150572 0.226857
0.081200 0.150278 0.223701
0.070834 0.155646 0.232795
0.086304 0.152133 0.224598
0.077363 0.156229 0.229241
-0.187898 0.084130 -0.040172
-0.170359 -0.003250 0.081658
-0.181370 -0.017011 0.084588
-0.229904 -0.054860 0.060366
-0.239573 -0.060433 0.047845
-0.251120 -0.069168 0.013134
-0.243733 -0.071579 0.022752
-0.249137 -0.067521 -0.010353
-0.234870 -0.063543 -0.022215
-0.232768 -0.060570 -0.017552
-0.243421 -0.064513 -0.016661
-0.085363 0.126094 0.141075
-0.099783 0.121221 0.141913
-0.091177 0.134194 0.162297
-0.194436 -0.005968 0.023034
-0.099891 0.096221 0.070023
-0.105490 0.137459 -0.010676
-0.078126 0.143934 -0.006447
-0.099223 0.138076 -0.016937
-0.143987 0.127584 -0.026303
-0.165123 0.121375 -0.029967
-0.092651 0.117490 0.128329
-0.082939 0.099736 0.070503
-0.189702 0.097929 -0.038147
-0.193072 0.088722 -0.038700
-0.066553 0.103122 0.068070
-0.078445 0.084603 0.065613
-0.193499 -0.019980 0.079491
-0.255072 -0.065876 0.012842
-0.188623 -0.036466 0.009271
-0.202531 -0.000102 0.030264
-0.195546 -0.015130 0.029669
-0.109342 0.103580 0.106076
-0.130990 0.099226 0.115041
-0.105035 0.107051 0.116427
0.067353 0.144290 0.218328
0.062406 0.149608 0.232685
0.066830 0.151896 0.232642
-0.236324 0.111935 0.050990
-0.231450 0.115862 0.069822
-0.216414 0.120754 0.056795
-0.080066 0.166639 0.006792
-0.072305 0.166500 0.023120
-0.175202 0.113971 -0.034700
-0.195697 0.101253 -0.034967
-0.243565 0.095491 0.121085
-0.238049 0.090828 0.137845
-0.225270 0.100648 0.125134
-0.126769 0.132259 -0.020742
-0.244191 0.108852 0.102598
-0.230309 0.133683 0.095605
-0.114197 0.075490 -0.034126
-0.110830 0.085984 -0.028749
-0.129936 0.080291 -0.038103
-0.175403 0.079384 0.028268
-0.116430 0.092518 0.068233
-0.096693 0.116153 -0.022873
-0.113395 0.110680 -0.029007
-0.093309 0.106264 -0.019897
-0.073245 0.095808 0.071479
-0.094296 0.072153 0.068277
-0.142279 0.021658 0.073665
-0.148996 0.020823 0.074947
-0.212537 -0.033693 0.072477
-0.219344 -0.044530 0.069617
-0.051737 0.162715 0.046928
-0.218250 0.148535 0.142342
-0.254652 -0.066976 0.000950
-0.185087 0.174779 0.169727
-0.171159 0.183261 0.162217
-0.214254 0.025941 0.032245
-0.219022 0.010253 0.041896
-0.217704 -0.001639 0.048756
-0.211597 -0.001268 0.041472
-0.160199 0.085091 0.042954
-0.089497 0.091594 0.078299
-0.112649 0.182640 0.226053
-0.086747 0.181823 0.233682
-0.085692 0.085006 0.075376
-0.097056 0.083000 0.083633
0.252635 0.074801 0.253719
0.255937 0.074897 0.246210
0.260263 0.076550 0.223139
0.061939 0.158781 0.240250
0.066525 0.155144 0.235913
-0.123880 0.046451 0.071774
-0.115822 0.056393 0.076281
-0.170589 0.005749 0.079222
-0.159816 0.009150 0.078111
-0.008926 0.117486 0.008770
-0.000143 0.112170 0.009086
-0.000101 0.120112 0.007290
-0.252462 -0.066666 -0.006535
-0.213060 -0.053462 -0.024770
-0.204680 -0.048814 -0.014389
-0.220730 -0.056641 -0.019212
-0.210407 0.012263 0.033175
-0.085935 0.149538 0.190800
-0.103626 0.140956 0.178150
-0.126694 0.102066 0.127580
-0.108564 0.110838 0.129131
-0.180745 0.077910 0.038609
-0.136194 0.033350 0.071932
-0.247065 -0.059941 0.037924
-0.249065 -0.064909 -0.011254
-0.240604 -0.061629 -0.011973
-0.190862 -0.024264 0.028156
-0.211886 0.041554 0.028307
-0.223963 0.026775 0.039599
-0.102392 0.166617 -0.013585
-0.093658 0.168581 0.004953
-0.165674 0.081244 0.056184
-0.159325 0.017365 0.079443
-0.236825 -0.054035 0.052939
-0.196998 -0.044825 -0.001135
-0.192875 -0.040085 -0.013110
-0.183392 0.076343 0.050955
0.125766 0.081101 -0.152955
0.098046 0.070719 -0.132401
0.104244 0.070632 -0.131215
-0.135014 0.189194 0.204130
-0.139123 0.085415 0.070100
-0.128714 0.083363 0.082182
0.063961 0.150982 0.234012
0.057732 0.154667 0.245741
0.059188 0.155861 0.244738
-0.094371 0.076366 0.075958
0.002540 0.057394 0.033139
-0.006300 0.051777 0.024433
-0.007503 0.056083 0.031874
0.072556 0.159990 0.229760
0.062089 0.161955 0.231220
0.066738 0.159654 0.234673
-0.147469 0.029558 0.080924
-0.253277 -0.063046 0.023826
-0.255811 -0.063986 0.005083
-0.252837 -0.064315 -0.004798
-0.189298 -0.039177 0.023806
-0.187765 -0.029198 0.020926
-0.189450 -0.031991 0.032969
0.190626 0.043027 0.319363
0.191570 0.045414 0.315989
0.199613 0.046707 0.321042
0.056268 0.153207 0.244586
0.060366 0.148690 0.231664
-0.205065 0.067871 0.048546
-0.105904 0.088927 0.080509
-0.105086 0.073227 0.086102
-0.018696 0.042332 -0.056855
-0.022556 0.044894 -0.069740
-0.016071 0.040489 -0.061939
-0.202064 -0.020791 0.075877
-0.248837 -0.060290 0.001041
-0.246323 -0.061603 -0.006049
-0.233887 0.116866 0.137183
0.071215 0.092643 -0.033253
0.075987 0.101554 -0.046158
0.065023 0.092980 -0.030190
-0.109544 0.065186 0.082026
-0.135991 0.041625 0.084393
-0.195034 -0.045177 0.012680
-0.201515 -0.048597 0.003077
-0.217844 0.019956 0.150269
-0.220050 0.011609 0.147360
-0.228451 0.022095 0.140983
-0.225609 0.006144 0.051122
-0.218829 0.042400 0.033704
-0.211538 0.055733 0.031610
-0.229088 0.039414 0.042617
-0.175368 0.176078 0.186218
-0.200407 0.105572 -0.031026
-0.202362 0.068303 0.063322
-0.129672 0.050906 0.092114
-0.180510 0.002390 0.082242
-0.192438 -0.009689 0.078785
-0.218737 -0.055558 -0.005665
-0.215248 -0.054297 0.008105
-0.228916 -0.058073 -0.005230
-0.118185 0.172974 0.218871
-0.204631 -0.050788 0.008921
-0.194164 -0.025049 0.038271
-0.203104 -0.013685 0.040968
-0.183633 0.088293 -0.039642
-0.197448 0.083892 -0.036427
0.141851 0.072286 0.204389
0.146796 0.072984 0.204245
0.143323 0.072939 0.191594
-0.181999 0.075018 0.062783
-0.161437 0.073705 0.086610
-0.158292 0.024536 0.090196
-0.168463 0.014280 0.086031
-0.199501 -0.011394 0.080496
-0.220244 -0.033911 0.068008
-0.210993 -0.023433 0.073750
0.051456 0.158665 0.255147
0.069243 0.161976 0.225826
0.059015 0.162881 0.223156
0.094575 0.159487 0.174763
0.084463 0.160940 0.157931
0.080732 0.161987 0.178449
-0.253266 -0.061609 0.002853
-0.254271 -0.060225 0.011061
-0.200346 -0.049984 0.025456
0.071546 0.118800 -0.084014
0.072601 0.131178 -0.079873
0.051506 0.105958 -0.070327
-0.045320 0.174599 0.241086
-0.062864 0.181741 0.240403
-0.043319 0.179649 0.241806
-0.118383 0.113512 0.140809
-0.188310 -0.039918 0.038199
-0.190423 -0.032775 0.045785
-0.209743 -0.012555 0.050735
-0.167161 0.077060 0.071861
-0.010952 0.061846 0.034442
-0.022344 0.064086 0.030848
-0.013222 0.068371 0.034607
-0.128710 0.057440 0.100048
-0.122126 0.069012 0.098799
0.150315 0.240698 -0.030097
0.158365 0.241489 -0.042146
0.179136 0.251109 -0.033798
-0.180078 0.127912 -0.042959
-0.179139 0.118193 -0.043277
-0.163283 0.135262 -0.044936
-0.072369 0.166257 0.032066
0.070849 0.161521 0.164046
0.068601 0.162217 0.178028
-0.016319 0.130181 0.009766
-0.019515 0.136234 0.012590
-0.030349 0.133760 0.006482
0.059279 0.089093 -0.018719
0.049068 0.085316 -0.006956
0.049360 0.084400 -0.004760
-0.255480 -0.061998 0.015807
-0.223719 -0.055721 0.008424
-0.236497 -0.058972 -0.002461
-0.193907 -0.046163 0.025678
-0.192967 0.100793 -0.039051
-0.175382 0.109927 -0.042444
-0.093188 0.168850 0.015275
-0.243879 0.100807 0.118186
-0.252593 0.091002 0.109179
-0.234758 0.043663 0.051465
-0.223099 0.052368 0.041845
-0.203527 0.066510 0.036608
-0.222733 0.057059 0.048521
-0.221680 0.059769 0.060638
-0.217923 0.060068 0.078142
-0.126531 0.078366 0.091916
-0.150743 0.069970 0.099961
-0.113658 0.079819 0.090656
-0.150633 0.034217 0.098514
-0.186347 0.001277 0.087628
-0.240404 -0.058138 0.003739
-0.202751 -0.023075 0.061995
-0.190593 -0.032783 0.057290
-0.198566 -0.024054 0.049990
0.073405 0.081903 -0.057398
0.076234 0.084851 -0.051173
0.066052 0.083331 -0.039030
0.032848 0.064275 -0.059460
0.032040 0.060204 -0.057656
0.021272 0.047924 -0.049962
-0.192880 0.068298 0.078612
-0.146883 0.041390 0.106493
-0.233886 -0.042508 0.058241
-0.233184 -0.038332 0.060980
-0.224638 -0.033361 0.066755
-0.251521 -0.057479 0.030935
-0.252774 -0.057169 0.022322
-0.208299 -0.052077 0.025716
-0.189542 -0.045214 0.041482
-0.186430 -0.039166 0.051149
-0.217823 -0.007992 0.056852
-0.234116 0.019774 0.051419
-0.228502 0.000461 0.061419
-0.237060 0.047078 0.062109
0.057150 0.163010 0.212388
0.044016 0.162222 0.216067
-0.249819 -0.055692 0.019611
-0.248381 -0.052985 0.028843
-0.184965 -0.043159 0.056971
-0.193629 -0.048054 0.044213
-0.135585 -0.095526 0.102063
-0.150908 -0.097235 0.099214
-0.137532 -0.099396 0.105773
-0.239814 0.029078 0.055798
0.070716 0.160168 0.143053
-0.178837 0.070621 0.083307
-0.190887 0.063025 0.097475
-0.248383 -0.052030 0.035618
-0.244149 -0.049112 0.045899
0.168732 0.052265 0.276917
0.162395 0.060147 0.253185
0.162973 0.058281 0.259650
-0.242554 -0.056352 0.011468
-0.218587 -0.053225 0.022984
-0.167621 0.059353 0.114292
-0.154359 0.062926 0.110516
-0.143213 0.056627 0.112650
-0.137981 0.067977 0.104374
-0.160246 0.034890 0.119083
-0.167244 0.036252 0.128592
-0.150904 0.045101 0.116251
-0.174512 0.011998 0.092243
-0.205085 -0.012829 0.085630
-0.219430 -0.026287 0.073249
-0.240187 -0.043796 0.051688
-0.249819 -0.058439 0.008777
-0.231144 -0.054559 0.016730
-0.230955 -0.056288 0.008812
-0.189307 -0.033495 0.068080
0.023311 0.123321 -0.049421
0.002309 0.115959 -0.048437
0.005739 0.104280 -0.044124
-0.236041 0.049570 0.077401
-0.168103 0.023350 0.113277
-0.170394 0.017541 0.099813
-0.129842 -0.102039 0.111381
-0.125405 -0.098207 0.108642
-0.215515 -0.014320 0.067353
-0.238724 0.012224 0.064782
-0.244786 0.023631 0.070262
0.099300 0.096609 -0.092915
0.114190 0.107092 -0.113523
0.112525 0.109755 -0.103548
-0.110844 0.127956 0.159331
-0.114296 0.136117 0.004619
-0.110768 0.136760 -0.003577
-0.135827 0.132766 -0.005450
-0.242814 0.035439 0.063231
-0.188061 0.002255 0.095800
0.060776 0.046454 -0.065007
0.050397 0.045596 -0.062522
0.047623 0.038668 -0.051929
-0.227990 -0.032466 0.069238
-0.242553 -0.047397 0.042311
-0.185193 -0.038134 0.061408
-0.213556 0.057586 0.095369
-0.172147 0.064395 0.103657
-0.190850 0.054337 0.117699
-0.203765 -0.050393 0.037831
0.169804 0.054618 0.277314
0.166719 0.056564 0.265676
0.170995 0.051475 0.282411
-0.245127 0.036429 0.076341
-0.229840 0.051809 0.090811
0.189398 0.053699 0.299837
0.188230 0.056039 0.301330
0.195188 0.050213 0.310927
-0.227318 -0.005236 0.072307
-0.231579 0.044190 0.111535
-0.242869 0.039233 0.095436
0.050608 0.157330 0.255715
-0.226099 0.092982 0.143468
0.242931 0.069223 0.284323
0.232840 0.064143 0.302030
0.243526 0.068194 0.282206
-0.205799 0.158289 0.161327
-0.221559 0.138052 0.152899
-0.113067 0.098572 -0.028008
0.098606 0.078495 -0.140451
0.116369 0.088739 -0.151312
0.093510 0.078086 -0.135821
0.037531 0.162336 0.253322
0.049898 0.161240 0.248977
0.040791 0.162308 0.241855
-0.087917 0.140652 0.012018
-0.090365 0.138585 0.027716
-0.067399 0.143830 0.027255
-0.122480 0.161399 0.206794
-0.110907 0.151735 0.195073
-0.124593 0.137278 0.176909
-0.194507 -0.047778 0.052667
-0.185303 -0.044795 0.062624
-0.197708 -0.027601 0.072335
-0.210141 -0.019691 0.076311
-0.193567 -0.030310 0.080365
-0.183084 0.008276 0.108354
-0.200837 -0.008251 0.097746
-0.214556 -0.020597 0.085794
-0.014098 0.047727 0.014971
-0.019213 0.050836 0.022657
-0.242372 -0.050348 0.032541
-0.231274 -0.052447 0.024945
-0.240997 -0.053162 0.022437
0.250542 0.075288 0.235780
0.256010 0.075929 0.232665
0.257917 0.075426 0.206267
-0.195427 0.162110 0.177098
0.123607 0.057991 -0.093123
0.098122 0.053229 -0.070542
0.100087 0.049017 -0.063062
-0.219801 -0.051511 0.031146
-0.146942 0.013461 0.078048
-0.238978 0.007496 0.077530
-0.245599 0.019946 0.085508
-0.162747 0.171530 0.197830
-0.164326 0.167970 0.206952
-0.147056 0.179047 0.211627
-0.197466 0.128034 -0.035055
-0.197830 0.117370 -0.038180
-0.179860 0.136017 -0.040625
-0.159290 0.046784 0.123624
-0.180476 0.026800 0.138640
-0.173915 0.024009 0.128069
0.040105 0.040173 0.019632
0.043992 0.038378 0.020409
0.039243 0.033005 0.010427
0.009984 0.058603 0.026765
0.002480 0.053551 0.021014
-0.206047 -0.049798 0.042061
0.042187 0.026799 -0.037855
0.037368 0.029726 -0.037076
0.037678 0.025146 -0.032492
0.081217 0.023870 0.031333
0.087588 0.032871 0.054626
0.089688 0.024280 0.037036
0.035945 0.028418 0.001545
0.035546 0.034906 0.009506
0.053671 0.010087 -0.017805
0.059118 0.006097 -0.024238
0.051567 0.009353 -0.023306
0.035331 0.021639 -0.022705
0.038912 0.021318 -0.029246
0.033656 0.025101 -0.026586
0.095185 0.056446 0.106879
0.097789 0.069565 0.131477
0.105583 0.065047 0.135617
0.059635 0.161206 0.170439
0.048207 0.159688 0.166934
0.058511 0.162082 0.185504
0.125548 0.091237 0.212793
0.139464 0.092775 0.240781
0.134176 0.086395 0.218062
0.060200 0.027511 0.018838
0.065620 0.036116 0.038088
0.067233 0.026029 0.023445
0.011783 0.106672 0.135813
0.023017 0.106230 0.146761
0.018424 0.102107 0.130099
0.145095 0.077857 0.212460
0.134800 0.070933 0.182856
0.134404 0.079982 0.204244
0.070948 0.017776 0.011660
0.075658 0.028271 0.035509
-0.081848 0.028998 -0.057936
-0.071261 0.030608 -0.059545
-0.085473 0.022775 -0.059145
-0.217300 0.100320 -0.025704
-0.200905 0.111048 -0.026570
0.111715 0.046208 0.101832
0.098348 0.041284 0.080968
0.104676 0.053438 0.112384
0.102656 0.026024 0.045253
0.100002 0.033171 0.063141
0.113904 0.037431 0.079379
-0.191864 0.096345 0.133564
-0.213517 0.096927 0.135312
-0.213596 0.091529 0.149014
-0.219096 -0.049242 0.040172
-0.207205 -0.048117 0.049428
-0.162671 0.080854 0.009555
0.071016 0.055063 0.071826
0.077043 0.067675 0.097099
0.076489 0.055284 0.079916
-0.211778 0.060240 0.156631
-0.213901 0.068014 0.147188
-0.212626 0.047961 0.143168
-0.207974 0.053342 0.164187
-0.208978 0.076292 0.170119
-0.212022 0.079763 0.160338
-0.203675 0.022936 0.150621
-0.198234 0.019062 0.158962
-0.203582 0.034342 0.161641
-0.205234 0.063493 0.172587
-0.202284 0.084309 0.179964
-0.085270 0.104429 0.120329
-0.068258 0.109569 0.112946
-0.075633 0.111826 0.123193
-0.193366 0.007988 0.155822
-0.192402 0.015712 0.163487
-0.085730 0.110591 0.129415
-0.190263 0.024502 0.168836
-0.197090 0.030355 0.167964
-0.165361 0.071142 0.159775
-0.159301 0.091274 0.162852
-0.178010 0.078500 0.171836
0.051701 0.157816 0.046996
0.065105 0.168367 0.046285
0.066881 0.160120 0.047508
-0.184254 0.093839 0.180724
-0.180551 0.110644 0.186469
-0.193056 0.102583 0.186161
-0.011684 0.139926 0.135063
0.002568 0.145450 0.147081
-0.013049 0.142887 0.149788
-0.026864 0.132551 0.123255
-0.034353 0.125404 0.110853
-0.019311 0.130648 0.109544
-0.200104 0.110545 0.185470
-0.185044 0.127413 0.194662
-0.189748 0.136224 0.193940
0.258909 0.198527 0.180599
0.260569 0.207184 0.189049
0.267577 0.221472 0.172068
0.017991 0.147746 0.144210
0.035971 0.150687 0.143243
0.030674 0.152077 0.160089
-0.192388 0.080763 0.180027
-0.211466 0.057929 0.049364
-0.210434 0.039141 0.056012
-0.211562 0.061398 0.057730
-0.211881 0.071227 0.085331
-0.207939 0.089414 0.088105
-0.209140 0.082949 0.078459
-0.206025 0.016506 0.071602
-0.197446 -0.000060 0.060145
-0.198912 0.000081 0.069855
-0.202311 0.102476 0.084369
-0.201998 0.107282 0.099402
-0.214764 0.066663 0.121594
-0.214095 0.044422 0.115929
-0.214753 0.057022 0.131584
-0.204684 0.117735 0.165433
-0.211648 0.091141 0.156137
-0.208166 0.099928 0.171473
-0.191822 0.142909 0.176455
-0.198402 0.130430 0.156709
0.023291 0.136509 0.080555
0.028452 0.135254 0.071232
0.040967 0.140166 0.074575
0.028838 0.160763 0.246098
0.021229 0.158292 0.223606
0.034419 0.159413 0.227839
-0.117226 0.056704 0.093799
-0.133875 0.044825 0.098622
-0.120634 0.050872 0.086616
0.043357 0.095998 -0.076367
0.055267 0.106240 -0.084244
0.049936 0.104687 -0.097089
-0.206126 0.092802 0.177484
-0.124493 0.058347 0.111482
-0.133012 0.056309 0.122022
-0.138018 0.048290 0.117329
-0.140971 0.036642 0.092264
-0.152796 0.030913 0.104044
-0.185765 -0.012092 0.139425
-0.186447 -0.004889 0.149126
-0.189921 -0.003056 0.147630
-0.186052 -0.014868 0.126775
-0.190193 -0.021284 0.110052
-0.189794 -0.014374 0.119395
-0.184166 -0.022333 0.118803
-0.186082 -0.026348 0.106182
-0.186545 -0.021777 0.115215
-0.184569 -0.000115 0.153837