# vtk DataFile Version 3.0
3D Unstructured Surface
ASCII
DATASET UNSTRUCTURED_GRID
POINTS 8455 float
19.908480 32.159755 -27.407246
19.766877 32.247285 -27.498917
19.910350 32.114709 -27.587806
19.768439 32.216539 -27.711883
19.558457 30.656142 -30.101718
19.720362 30.784381 -30.167031
19.713683 30.577529 -30.118026
19.603767 32.476928 -28.322468
19.624335 32.394209 -28.142463
19.477495 32.555817 -28.151202
19.707719 32.434619 -28.461273
19.735616 32.335591 -28.318396
19.618316 32.794733 -28.802934
19.778028 32.635914 -28.810368
19.605365 32.676451 -28.653749
19.759273 32.789711 -28.928351
19.632050 32.895570 -28.909739
19.733332 32.949465 -29.022944
19.865664 33.007018 -29.121648
19.696968 33.111744 -29.093837
19.885540 33.173704 -29.190375
19.874831 33.328505 -29.225677
20.054943 33.276416 -29.243338
19.938547 33.488039 -29.255690
20.150801 33.492959 -29.259897
20.296042 33.319006 -29.259291
20.371213 33.510878 -29.249420
20.232627 33.672514 -29.248324
20.426258 33.711578 -29.226000
20.601336 33.788466 -29.184731
20.430978 33.887595 -29.203618
20.569769 33.956873 -29.168336
20.778139 33.945462 -29.113444
19.152169 31.302275 -25.373688
19.309507 31.289000 -25.546560
19.320943 31.459397 -25.405509
20.959830 34.360672 -28.921978
21.061124 34.190867 -28.924944
20.838878 34.186547 -29.034636
21.196574 34.484213 -28.693875
21.343355 34.449234 -28.548342
21.310182 34.308873 -28.677345
21.720771 34.177068 -27.644256
21.702474 34.218038 -27.895085
21.625699 34.396059 -27.732024
21.719220 33.872645 -27.110847
21.790242 33.810142 -27.287749
21.729459 34.011928 -27.294854
20.633536 30.947954 -28.670428
20.781621 30.825634 -28.559164
20.828065 30.910426 -28.742735
21.644784 33.935583 -26.911942
21.665680 34.079104 -27.109272
21.600842 34.134845 -26.904656
20.894701 32.845542 -26.146428
21.103218 32.914164 -26.201417
20.949448 33.024932 -26.081562
20.495810 32.248925 -26.672397
20.570949 32.361212 -26.513335
20.378070 32.366163 -26.554281
20.369269 32.181755 -26.833485
20.318771 32.282166 -26.691104
20.138776 32.272059 -26.814434
20.255566 32.137144 -26.988265
19.851154 32.137548 -27.951573
19.676987 32.306434 -27.961019
21.587902 34.437750 -27.960157
21.647836 34.258435 -28.116382
20.738183 32.509047 -26.349642
20.794370 32.667208 -26.231135
20.612920 32.580646 -26.295087
19.011695 30.423257 -26.377508
18.759874 30.386904 -26.349087
18.914336 30.318609 -26.512472
20.628937 32.460174 -26.401040
16.766215 30.628121 -29.040228
16.886034 30.796453 -29.147357
16.987476 30.602447 -29.086716
19.784855 32.234523 -28.161661
19.766222 32.501962 -28.649549
20.533251 30.234004 -28.750223
20.498193 30.240981 -28.961257
20.716228 30.361870 -28.864499
20.065290 33.068313 -29.204889
19.759590 36.770387 -28.843618
19.526672 36.846164 -28.887131
19.640644 36.937139 -28.770559
20.392616 36.580470 -28.365186
20.496545 36.402297 -28.405719
20.377368 36.460120 -28.535520
20.508555 36.249977 -28.545955
20.347170 36.310296 -28.709109
18.692606 31.719926 -27.616457
18.595922 31.774728 -27.796454
18.486064 31.864698 -27.625870
18.907647 31.719721 -26.997629
18.661375 31.858234 -26.988121
18.808812 31.827375 -26.791245
19.075763 31.654378 -26.940207
19.014669 31.725099 -26.794070
19.177356 31.637797 -26.836079
19.408923 31.702366 -26.269804
19.380474 31.641695 -26.520366
19.233264 31.742902 -26.419259
19.408347 31.781422 -25.887586
19.524276 31.603417 -25.812618
19.509112 31.674467 -26.058720
18.543497 30.072335 -26.835165
18.477286 30.160559 -26.646761
18.344997 30.031644 -26.857405
21.462531 34.279635 -28.510212
21.435969 34.127739 -28.647695
20.918581 32.496418 -26.366999
21.018241 32.704325 -26.261093
17.105920 30.064485 -28.782967
16.927420 30.182287 -28.816723
17.152915 30.242275 -28.938163
20.157587 30.155023 -29.544351
19.987292 30.039551 -29.372949
19.919493 30.072079 -29.595234
20.620636 33.575143 -29.216727
20.518501 33.345248 -29.253062
20.789621 33.732483 -29.152285
19.453694 31.486970 -25.613642
19.549349 31.426437 -25.780665
19.131425 30.756349 -25.970872
19.359668 30.740673 -26.092884
19.323840 30.892768 -25.913777
19.750492 30.268529 -29.963116
19.776161 30.124740 -29.800485
19.560187 30.215704 -29.910074
21.465010 34.403543 -28.400045
21.570356 34.276980 -28.318509
21.831153 33.968938 -27.829467
19.497992 33.253956 -29.047584
19.550392 33.054415 -28.961110
20.044807 32.054832 -27.441661
20.175365 32.025307 -27.302081
20.013242 32.132693 -27.272839
19.876563 32.301772 -28.521960
20.014796 32.147391 -28.470208
19.906817 32.173790 -28.330532
20.458719 33.110560 -25.913233
20.281270 33.076712 -25.938632
20.373378 32.945994 -26.024667
17.014462 30.946642 -29.239381
16.891946 31.174880 -29.296873
17.131656 31.100500 -29.323098
16.868914 31.366754 -29.360820
17.061645 31.298695 -29.373450
19.633861 31.488612 -25.956600
21.168803 33.988100 -28.931857
21.256270 34.144245 -28.809844
21.667963 34.147663 -28.250989
21.753119 34.079321 -28.082626
21.809633 33.926432 -27.514858
21.712236 34.138554 -27.437265
21.773510 33.667496 -27.132711
21.623588 33.562020 -26.728767
21.669378 33.315356 -26.786115
21.737871 33.488343 -26.967991
19.689005 31.610218 -30.093679
19.871476 31.585340 -30.147443
19.727144 31.366357 -30.166819
20.769052 32.378914 -26.467225
19.933973 32.496262 -28.815395
18.810193 31.674532 -27.430180
18.600920 31.810391 -27.394761
18.738042 31.763383 -27.193056
19.086042 31.603834 -27.107344
19.261691 31.548484 -27.009801
19.809418 31.759438 -30.052907
19.917848 32.654191 -28.938242
19.543610 31.585555 -26.415500
19.629911 31.556461 -26.199308
19.903594 32.831857 -29.049831
20.254952 33.118957 -29.243251
21.370211 33.967212 -28.794947
21.917608 33.744495 -27.682354
21.249535 32.749405 -26.351996
20.712245 32.242488 -26.630378
20.925413 32.320908 -26.517190
19.973323 31.970908 -29.672636
20.149517 31.809846 -29.681109
19.963206 31.893182 -29.897741
17.087929 30.423415 -29.025247
17.274576 30.381511 -29.065574
17.144424 30.772955 -29.205759
20.220199 31.012886 -28.225402
20.258598 31.012540 -28.459348
20.070292 31.071923 -28.390167
18.709269 30.142408 -26.753327
18.702939 30.043522 -26.938854
19.355874 31.574508 -26.774439
19.576546 31.514672 -26.604909
20.718846 31.020704 -28.888644
20.814937 31.051535 -29.090114
20.582237 31.151547 -29.072990
18.954850 31.637169 -27.231391
20.840779 30.500070 -28.654909
20.659745 30.313186 -28.614642
19.081974 31.493602 -25.074484
19.006789 31.343368 -25.197268
19.191779 31.457273 -25.234787
19.946710 32.057866 -27.765859
19.961243 32.362412 -28.703587
18.771032 30.963357 -25.531387
18.944126 31.039880 -25.532801
18.772205 31.074677 -25.384437
20.048291 32.889448 -29.137865
20.440044 33.158789 -29.257593
20.929187 33.840409 -29.087712
20.994954 33.679826 -29.104900
21.543013 33.941703 -28.643951
21.585833 34.101861 -28.469273
18.524784 29.967592 -27.040031
20.642091 30.358494 -29.148366
21.882273 33.675892 -27.448019
20.375489 30.247831 -29.428067
20.218028 30.143140 -29.306533
20.457212 32.051490 -26.996856
20.667093 31.978916 -26.979865
20.838972 31.932253 -26.958832
20.781682 32.068912 -26.823092
19.948718 32.076829 -28.146704
20.086169 32.707622 -29.064653
19.836150 30.430480 -30.063300
19.590289 30.444421 -30.046719
20.237928 32.933235 -29.203711
20.248704 32.762272 -29.149230
13.849451 32.054339 -29.241169
13.958395 32.084976 -29.072022
13.851291 31.908083 -29.039542
17.324905 31.039001 -29.352224
17.188388 30.939198 -29.281057
20.765845 33.346829 -29.226109
20.664583 33.158709 -29.256565
21.191717 33.649578 -29.029844
21.084173 33.830655 -29.026466
17.689582 30.758398 -25.238789
17.579266 30.834032 -25.065306
17.519695 30.682987 -25.276061
21.844961 33.606568 -27.283187
21.441322 33.372466 -26.394561
21.411287 33.137936 -26.385962
21.553904 33.270555 -26.570077
20.585803 32.125395 -26.819613
19.628269 31.077131 -30.157005
19.843284 31.174182 -30.216242
20.182267 31.741268 -29.966265
19.997509 31.737216 -30.062166
20.031559 31.981962 -27.974537
20.883145 33.537993 -29.169941
21.863398 33.879009 -28.078286
21.825360 33.477960 -27.164073
21.787431 33.280189 -27.014364
21.075287 32.393914 -26.471114
20.307758 32.020647 -27.163625
20.517353 31.905456 -27.188139
18.908124 30.218989 -26.679354
18.915965 30.083922 -26.928669
20.068727 32.034662 -28.334301
21.097717 33.500640 -29.109400
21.758495 33.975177 -28.273556
21.381733 32.929370 -26.397559
21.256361 33.089343 -26.245670
20.121986 31.938937 -28.177000
14.582905 30.563897 -25.920801
14.563891 30.366791 -25.727915
14.439462 30.327929 -25.911169
20.000811 30.158451 -29.747665
20.062880 32.214001 -28.628689
20.147075 32.334227 -28.830052
17.214853 30.567643 -29.138751
17.405560 30.494674 -29.168851
17.351766 30.679008 -29.230431
20.379378 32.999868 -29.242579
17.851443 31.214360 -24.039293
18.092483 31.354535 -24.052924
18.037905 31.173856 -24.195111
17.222048 31.395435 -29.437439
17.424243 31.362842 -29.474374
17.280395 31.235150 -29.402476
20.992112 33.331096 -29.181472
21.932136 33.762389 -27.893585
21.973305 33.537465 -27.603773
21.911840 33.459048 -27.361451
21.350320 32.566601 -26.498948
21.144781 32.536258 -26.400704
21.235330 32.384724 -26.537138
14.609661 33.442242 -29.636308
14.783432 33.572304 -29.469335
14.675908 33.386042 -29.438605
17.471193 30.322933 -29.106459
17.355206 30.229411 -29.005680
20.231711 31.830472 -28.007707
20.089444 32.525147 -28.948929
20.419655 32.845849 -29.218158
19.037178 33.910651 -23.686146
18.973240 33.689215 -23.644624
18.888429 33.877802 -23.562765
21.466905 33.770340 -28.806751
21.990114 33.228392 -27.430873
21.895800 33.263942 -27.233114
20.880939 30.517279 -29.099186
16.316808 31.178935 -23.549738
16.386079 31.335162 -23.624297
16.452543 31.289857 -23.439434
20.548631 32.990209 -29.257768
20.871718 33.149615 -29.236238
21.443950 32.748403 -26.505377
21.485497 32.888440 -26.515231
21.332679 31.639147 -28.887727
21.479703 31.492670 -28.824119
21.285097 31.505227 -28.723363
20.787301 31.829430 -27.116233
20.352102 31.920696 -27.316176
20.229528 31.917464 -27.493385
20.461819 31.789936 -27.463793
[...]
POINT_DATA 8455
VECTORS Displacement float
-0.148480 -0.079355 0.102346
-0.143877 -0.069885 0.096417
-0.151650 -0.080709 0.089406
-0.145439 -0.071439 0.079583
-0.109057 0.002758 0.104718
-0.117262 0.002919 0.099531
-0.115383 0.009371 0.111126
-0.123667 -0.050728 0.011168
-0.131035 -0.057209 0.034363
-0.120695 -0.039317 0.021202
-0.124019 -0.058819 0.001673
-0.132416 -0.065891 0.022496
-0.094616 -0.023833 -0.070566
-0.102528 -0.047114 -0.053332
-0.105665 -0.034551 -0.041551
-0.088873 -0.031511 -0.084249
-0.084950 -0.014070 -0.094161
-0.075232 -0.013365 -0.115156
-0.061964 -0.013118 -0.138252
-0.062368 0.006356 -0.144263
-0.044740 0.005796 -0.172225
-0.031331 0.025295 -0.199123
-0.021443 0.013384 -0.202762
-0.012347 0.043861 -0.228510
0.006599 0.040141 -0.238303
0.004758 0.014194 -0.218409
0.028087 0.039222 -0.239180
0.028173 0.062586 -0.254376
0.046942 0.064722 -0.246400
0.063364 0.071434 -0.229969
0.057722 0.086405 -0.245282
0.069631 0.091727 -0.226364
0.077661 0.085238 -0.199056
-0.093769 0.074125 0.069788
-0.106907 0.072900 0.060460
-0.104343 0.066803 0.063309
0.086770 0.112028 -0.129022
0.082076 0.094633 -0.134456
0.085322 0.106053 -0.167464
0.076326 0.100087 -0.082125
0.065145 0.086066 -0.070258
0.068318 0.083727 -0.090255
0.026229 0.042032 -0.059844
0.028526 0.046062 -0.063715
0.036901 0.055641 -0.042376
0.025380 0.029055 -0.056253
0.018658 0.023158 -0.070451
0.024941 0.034372 -0.058146
-0.191536 -0.028054 0.098228
-0.191421 -0.022734 0.103564
-0.188465 -0.032326 0.102535
0.031716 0.035017 -0.038358
0.031320 0.039896 -0.042028
0.037458 0.044955 -0.023544
-0.008001 -0.042142 0.119128
0.010682 -0.033464 0.092217
0.008452 -0.021232 0.106562
-0.103510 -0.099225 0.136997
-0.084149 -0.092312 0.140735
-0.101170 -0.087963 0.146081
-0.122069 -0.099755 0.132185
-0.114871 -0.091566 0.140604
-0.128076 -0.084659 0.137634
-0.135366 -0.097144 0.125065
-0.148854 -0.078148 0.062373
-0.138287 -0.064134 0.055719
0.040898 0.061350 -0.045843
0.034964 0.052765 -0.065818
-0.052283 -0.079347 0.135642
-0.031770 -0.062708 0.131735
-0.057320 -0.072746 0.144987
-0.098895 0.084143 0.046508
-0.089174 0.077996 0.053787
-0.093136 0.078891 0.048572
-0.068037 -0.084174 0.141340
-0.053515 -0.029021 0.034728
-0.055234 -0.014653 0.039657
-0.054576 -0.027847 0.043016
-0.140755 -0.072623 0.041961
-0.115622 -0.057362 -0.022751
-0.172851 0.040896 0.112823
-0.171093 0.040919 0.117157
-0.182028 0.025630 0.116299
-0.040790 -0.013513 -0.165511
0.179110 0.232413 0.039418
0.176628 0.245236 0.027131
0.188256 0.237561 0.041959
0.178984 0.189930 0.093086
0.163155 0.177403 0.085819
0.166732 0.187980 0.074220
0.150345 0.173823 0.066255
0.154330 0.188804 0.049709
-0.112006 0.061074 0.060157
-0.104522 0.065572 0.052854
-0.097764 0.077702 0.054770
-0.123347 0.059179 0.082629
-0.108575 0.074166 0.081421
-0.115312 0.067525 0.089845
-0.132463 0.051422 0.083107
-0.126969 0.056401 0.088170
-0.136756 0.048103 0.083979
-0.136323 0.043534 0.083404
-0.141274 0.042605 0.082866
-0.131564 0.049598 0.090459
-0.125847 0.047278 0.081186
-0.127976 0.050483 0.066418
-0.134812 0.043233 0.075720
-0.071797 0.051165 0.065465
-0.074186 0.056341 0.062961
-0.064297 0.040156 0.071905
0.054969 0.069965 -0.078888
0.058331 0.065261 -0.097405
-0.036181 -0.078818 0.122599
-0.009641 -0.056825 0.110293
-0.039620 -0.048485 0.054067
-0.043920 -0.048187 0.042423
-0.046515 -0.044175 0.054263
-0.140887 0.040677 0.122051
-0.127592 0.040949 0.115749
-0.121893 0.035921 0.118934
0.052164 0.044657 -0.227373
0.027299 0.015352 -0.218638
0.069579 0.061217 -0.209015
-0.117794 0.061130 0.060442
-0.126749 0.057963 0.057265
-0.104425 0.086951 0.052672
-0.117068 0.084927 0.042784
-0.113740 0.083132 0.048777
-0.113192 0.021571 0.121016
-0.112261 0.027460 0.120485
-0.100987 0.014796 0.119374
0.053990 0.073657 -0.064255
0.043744 0.060520 -0.070291
0.014547 0.028462 -0.080633
-0.059892 0.030644 -0.152616
-0.074492 0.006685 -0.118890
-0.153607 -0.088432 0.098361
-0.151265 -0.095607 0.105881
-0.147942 -0.085193 0.110239
-0.130363 -0.075472 0.007060
-0.140096 -0.088791 0.022508
-0.141817 -0.081490 0.031732
-0.024619 -0.011760 0.159033
-0.042470 -0.016212 0.175832
-0.045178 -0.032094 0.167167
-0.056162 -0.000142 0.043381
-0.052046 0.020620 0.042473
-0.055956 0.015400 0.045798
-0.047914 0.040246 0.044220
-0.051245 0.035005 0.045050
-0.135961 0.047488 0.060700
0.075997 0.073200 -0.141143
0.072230 0.078955 -0.114556
0.033637 0.048037 -0.077311
0.023781 0.038679 -0.078174
0.016567 0.027168 -0.074342
0.027064 0.040346 -0.054935
0.020190 0.017404 -0.066589
0.030112 0.017080 -0.033433
0.025622 -0.000056 -0.034585
0.022629 0.009257 -0.056209
-0.112905 -0.008718 0.041779
-0.115776 -0.016340 0.045343
-0.116244 -0.008257 0.058619
-0.062352 -0.091214 0.132025
-0.108873 -0.067262 -0.039205
-0.119793 0.056868 0.067780
-0.106220 0.071909 0.065261
-0.114542 0.065917 0.074856
-0.134942 0.048166 0.078344
-0.144091 0.041716 0.078301
-0.112318 -0.016238 0.032407
-0.093748 -0.052991 -0.070258
-0.146210 0.037345 0.075700
-0.143511 0.038639 0.068908
-0.076694 -0.034357 -0.105769
-0.018552 -0.012057 -0.185349
0.064189 0.060088 -0.119353
0.005592 0.014605 -0.089046
0.008265 -0.049905 0.081896
-0.082645 -0.102788 0.131478
-0.052213 -0.094608 0.122490
-0.116323 -0.038708 0.013536
-0.124717 -0.048346 0.028009
-0.113406 -0.030682 0.021641
-0.051729 -0.037315 0.048647
-0.052076 -0.038111 0.058074
-0.057824 -0.013955 0.047659
-0.189899 -0.015386 0.083202
-0.188498 -0.018740 0.086148
-0.182992 -0.015323 0.079567
-0.080069 0.062692 0.057927
-0.074739 0.053878 0.063454
-0.145474 0.040992 0.080239
-0.152646 0.034028 0.073409
-0.186246 -0.037404 0.097244
-0.179937 -0.041535 0.097214
-0.178537 -0.042547 0.087990
-0.128050 0.052531 0.075091
-0.186379 0.007130 0.111709
-0.179345 0.031014 0.111042
-0.082074 0.067598 0.077584
-0.081689 0.072432 0.080968
-0.092279 0.068527 0.069887
-0.154610 -0.083666 0.077159
-0.120943 -0.077512 -0.014813
-0.081832 0.080143 0.082987
-0.088026 0.081020 0.075701
-0.077905 0.077723 0.088837
-0.060591 -0.034448 -0.128835
0.003056 -0.009389 -0.195907
0.076813 0.069591 -0.185388
0.071846 0.050674 -0.184700
0.049387 0.047697 -0.105149
0.043567 0.052839 -0.087627
-0.065184 0.040008 0.072831
-0.178191 0.029206 0.121066
0.009527 0.013208 -0.084081
-0.158989 0.039569 0.123667
-0.148028 0.044060 0.119233
-0.129312 -0.108090 0.121256
-0.116693 -0.114616 0.118665
-0.102172 -0.116553 0.116832
-0.094082 -0.113012 0.123092
-0.150318 -0.085029 0.050204
-0.077169 -0.055922 -0.094447
-0.120550 0.018520 0.118700
-0.107289 0.009579 0.115019
-0.039728 -0.035435 -0.149689
-0.057904 -0.055972 -0.116170
-0.002651 0.184861 0.088869
-0.003995 0.186224 0.083322
-0.005491 0.174117 0.064942
-0.059605 0.010099 0.050424
-0.058388 0.000502 0.047757
0.045655 0.014271 -0.204191
0.022717 -0.010209 -0.191835
0.069283 0.042022 -0.161556
0.075927 0.063245 -0.165234
-0.060482 0.052002 0.098689
-0.056666 0.050868 0.104706
-0.058695 0.046213 0.089561
0.013539 0.011632 -0.077913
0.033478 0.008634 0.011461
0.028513 -0.011236 0.030262
0.029296 -0.001455 -0.006723
-0.108803 -0.108695 0.128213
-0.115069 -0.003931 0.077505
-0.120784 -0.007182 0.074042
-0.119467 -0.039968 0.035765
-0.115309 -0.026816 0.035166
-0.157459 -0.089162 0.064837
0.063255 0.036807 -0.200059
0.012402 0.023791 -0.089214
0.015540 0.005940 -0.072027
0.018169 -0.004589 -0.056836
-0.030987 -0.085914 0.111814
-0.144158 -0.102347 0.113025
-0.139753 -0.111356 0.109539
-0.089724 0.073611 0.050154
-0.083665 0.063978 0.055869
-0.149327 -0.092962 0.039401
0.065383 0.029160 -0.175900
0.024705 0.034823 -0.087844
0.021567 -0.031070 0.050459
0.025239 -0.014943 0.060270
-0.157086 -0.094837 0.054200
-0.035705 0.035003 -0.050899
-0.034491 0.030309 -0.045985
-0.035862 0.033971 -0.056631
-0.128111 0.035149 0.122465
-0.131280 -0.090001 0.004689
-0.114275 -0.089327 -0.024448
-0.056153 -0.028243 0.052551
-0.056760 -0.031974 0.061951
-0.059666 -0.020208 0.056331
-0.019178 -0.029668 -0.168021
-0.027843 0.048840 0.134493
-0.027783 0.053565 0.129824
-0.029505 0.047444 0.133011
-0.050748 0.045765 0.046639
-0.054943 0.041958 0.049074
-0.055595 0.029350 0.047976
0.054888 0.011304 -0.183728
0.004564 0.014911 -0.091915
0.000895 0.003535 -0.092927
0.007460 0.002152 -0.084349
0.002480 -0.066001 0.079148
-0.013281 -0.072058 0.102704
-0.017830 -0.084024 0.099138
-0.023961 0.262458 0.182108
-0.021832 0.273096 0.181335
-0.019708 0.264158 0.177905
-0.052193 -0.040133 0.068359
-0.047506 -0.043611 0.064680
-0.163711 -0.097772 0.067807
-0.096944 -0.073147 -0.057671
-0.032555 -0.049649 -0.140642
-0.067578 0.089549 0.117646
-0.067040 0.088885 0.100024
-0.069029 0.092098 0.106365
0.056595 0.040860 -0.124549
0.001186 -0.011392 -0.085127
0.009500 -0.007642 -0.074386
-0.184039 0.006421 0.116986
-0.025408 0.069165 0.080938
-0.030479 0.077338 0.086897
-0.028343 0.074343 0.085134
-0.004331 -0.032309 -0.169032
0.036282 -0.010815 -0.180662
0.015550 -0.047803 0.053877
0.021503 -0.034440 0.035531
-0.101579 -0.108047 0.046127
-0.102503 -0.101270 0.060219
-0.119597 -0.106627 0.064863
-0.119401 -0.116930 0.111533
-0.151202 -0.104496 0.103376
-0.158328 -0.098164 0.093785
-0.156019 -0.106836 0.095593
-0.153883 0.036910 0.125466
-0.159032 0.030041 0.071268
-0.160203 -0.102516 0.056994
0.009005 -0.037645 -0.159856
0.061112 0.021021 -0.153834
0.060148 0.031454 -0.139943
0.023695 -0.020213 -0.008189
0.018729 -0.034023 -0.008896
0.019525 -0.017752 -0.035038
-0.125594 0.012551 0.112172
0.020133 -0.038965 0.023047
-0.038305 -0.096582 0.110889
-0.067149 -0.107488 0.120668
-0.131436 0.059486 0.051056
-0.142603 0.045942 0.054392
-0.004637 0.282264 0.099418
-0.004767 0.278216 0.096187
-0.000720 0.266347 0.073013
-0.153328 -0.099721 0.044201
-0.130289 -0.105027 0.007271
0.046814 -0.008639 -0.165075
0.056677 0.007329 -0.163106
0.051483 0.012642 -0.134724
0.040328 0.029409 -0.110793
0.046888 0.022713 -0.122805
-0.061433 -0.024767 0.065702
-0.049379 0.056914 0.047152
-0.053152 0.055078 0.048625
-0.025118 0.140924 0.032106
-0.026930 0.140045 0.026670
-0.030947 0.124398 0.034427
-0.001203 -0.005640 -0.091988
-0.005366 -0.005553 -0.096643
0.014894 -0.053507 0.024064
-0.012747 0.171370 0.238146
-0.017592 0.164579 0.233976
-0.015198 0.165329 0.269203
-0.089220 -0.008932 0.107211
-0.093310 0.001413 0.114964
-0.079677 -0.007092 0.115327
-0.119660 -0.026263 0.048420
-0.003342 -0.079149 0.078951
-0.024769 -0.095115 0.098610
-0.080057 -0.114725 0.116656
-0.143236 -0.100689 0.026211
-0.032367 0.043062 0.130852
-0.034993 0.044891 0.125516
-0.035434 0.040230 0.125515
-0.020856 -0.061762 -0.129371
-0.055054 -0.075725 -0.098928
-0.030995 0.136444 0.035988
-0.024149 0.146706 0.049056
-0.017182 0.158508 0.010252
-0.133045 0.079292 0.035569
-0.131234 0.077707 0.037777
-0.121501 0.084725 0.038092
-0.072611 0.049199 0.066782
-0.033790 0.123091 0.030119
-0.036771 0.112019 0.035433
-0.064166 0.049246 0.081807
-0.064660 0.047567 0.076102
-0.068271 0.056281 0.081878
-0.027598 0.063355 0.087553
-0.029739 0.062792 0.095837
-0.028516 0.054604 0.092683
-0.002130 0.003833 -0.096327
0.014094 -0.030873 -0.034163
0.012845 -0.017400 -0.056619
0.011841 -0.059604 0.051013
-0.140025 0.065514 0.040303
-0.127310 0.076160 0.041787
-0.081558 0.058766 0.059769
-0.185648 -0.003582 0.112647
-0.188216 -0.017687 0.108132
-0.162527 -0.105156 0.087175
-0.163074 -0.101642 0.086189
-0.162410 -0.094654 0.078543
-0.165926 -0.100923 0.078500
-0.165561 -0.103038 0.070628
-0.159790 -0.107998 0.061019
-0.096905 -0.089126 -0.048096
-0.107835 -0.104125 -0.022057
-0.079580 -0.077158 -0.076966
0.025840 -0.034332 -0.152726
0.051807 0.000609 -0.144265
0.004529 -0.019948 -0.071522
-0.062700 -0.113370 0.109529
-0.031560 -0.102441 0.098619
-0.050856 -0.107259 0.110891
-0.015396 0.034763 0.054642
-0.016426 0.042574 0.061067
-0.018012 0.036131 0.063017
-0.066771 0.140005 0.124520
-0.062701 0.140396 0.148660
-0.069698 0.131240 0.145215
-0.150678 -0.107699 0.041701
0.001675 -0.056764 -0.132204
0.023370 0.015634 -0.104415
0.018910 0.000765 -0.106114
0.032681 0.013943 -0.112136
0.000554 0.005753 -0.097680
-0.006672 -0.006032 -0.098632
0.013186 -0.048125 -0.005389
0.005617 -0.072763 0.054652
-0.010874 -0.089629 0.081946
-0.096526 -0.117238 0.113009
-0.140995 -0.113136 0.102644
-0.116746 -0.116218 0.107730
-0.164927 -0.105022 0.081648
-0.050758 0.067993 0.046862
-0.059750 0.050619 0.050135
-0.009309 -0.014848 -0.095757
-0.009146 -0.014718 -0.096849
-0.002596 -0.084495 0.062612
0.008673 -0.066831 0.028065
0.128497 0.105623 0.131535
0.112411 0.096423 0.108654
0.126708 0.106240 0.126306
-0.153239 -0.109140 0.094644
-0.032156 0.132403 0.021406
-0.141754 -0.107872 0.026780
-0.137857 -0.113909 0.028638
-0.003806 -0.007371 -0.099139
0.006940 0.002873 -0.100765
-0.021519 0.292090 0.171046
-0.014934 0.286477 0.146156
-0.018836 0.296366 0.161544
-0.003442 -0.022150 -0.081891
0.008032 -0.040872 -0.035390
-0.101966 -0.111758 -0.015893
-0.092906 -0.105483 -0.034054
-0.052408 -0.088807 -0.082434
-0.082225 -0.094925 -0.056941
-0.011029 -0.074160 -0.104057
-0.034628 -0.091648 -0.073294
-0.026303 -0.079766 -0.099931
0.048554 -0.009004 -0.150708
0.039494 -0.009025 -0.123097
0.033523 0.001818 -0.115767
0.003607 -0.010810 -0.099704
-0.005231 -0.013939 -0.091548
0.001712 -0.031518 -0.062435
0.008201 -0.027920 -0.054232
-0.034688 -0.105311 0.096542
-0.036054 0.131238 0.277722
-0.040329 0.118530 0.279506
-0.030850 0.132168 0.294754
-0.163056 -0.107131 0.075529
0.014191 -0.055453 -0.120413
0.037549 -0.027114 -0.143289
0.135354 0.115009 0.134243
0.140217 0.115768 0.143974
-0.089396 -0.115860 0.109623
-0.136514 -0.112149 0.101018
-0.149880 -0.108765 0.094551
-0.019434 0.048932 0.052720
-0.026439 0.051181 0.054547
-0.026881 0.057211 0.063326
-0.121179 -0.014622 0.062152
-0.128628 0.039144 0.060085
-0.124623 0.047835 0.063216
-0.137972 0.034999 0.065099
-0.159293 -0.107026 0.089100
0.041394 -0.019200 -0.132345
-0.045290 0.010588 -0.044967
-0.043346 -0.000075 -0.035973
-0.045158 -0.004455 -0.038492
0.016744 -0.013248 -0.103458
-0.006846 -0.019237 -0.094898
-0.017625 -0.096214 0.084766
-0.149978 -0.113117 0.051112
-0.120496 -0.112457 0.002928
-0.118929 -0.117586 0.015189
0.009035 -0.055425 -0.004875
-0.015410 0.260508 0.143834
-0.014945 0.273694 0.144414
-0.018591 0.276132 0.159933
-0.159047 -0.107276 0.086460
-0.157500 -0.110302 0.066890
-0.016399 0.289438 0.172751
-0.014154 0.267636 0.156538
-0.018137 0.279918 0.176031
-0.110554 -0.113744 0.106229
-0.146702 -0.112949 0.064642
-0.155441 -0.108753 0.079930
-0.057726 -0.034757 0.071693
-0.173420 -0.045311 0.091236
-0.003758 0.204664 0.115659
-0.005820 0.215780 0.133666
-0.004777 0.208738 0.115056
-0.172127 0.031263 0.123838
-0.180390 0.018538 0.121435
-0.085308 0.077302 0.078831
-0.030907 0.027372 -0.019549
-0.033062 0.030917 -0.009961
-0.028806 0.026602 -0.010782
-0.069452 -0.003666 0.066269
-0.064596 0.002108 0.058451
-0.067319 0.014844 0.058868
-0.115426 0.051162 0.054954
-0.119967 0.037588 0.050817
-0.106631 0.055598 0.047303
-0.128716 0.005588 0.102908
-0.123913 -0.001716 0.089300
-0.128302 -0.009586 0.079953
0.005287 -0.066685 0.012202
-0.000276 -0.080495 0.044873
-0.056050 -0.111046 0.104299
-0.080440 -0.112615 0.106701
-0.051694 -0.107504 0.098500
0.027398 -0.041472 -0.118585
0.029583 -0.029644 -0.110797
0.023428 -0.023378 -0.104200
-0.029034 0.056794 0.122811
-0.030664 0.051441 0.125945
-0.011064 -0.024115 -0.090716
-0.004461 -0.033887 -0.069184
-0.009017 -0.025958 -0.085216
-0.002918 0.170611 0.075552
-0.003886 0.173230 0.071757
-0.007159 0.159433 0.050618
-0.166524 0.030202 0.125351
-0.051568 0.042509 -0.088841
-0.052141 0.041273 -0.069285
-0.056164 0.039050 -0.071328
0.000959 -0.042629 -0.047400
0.081156 0.084660 -0.167008
-0.131192 -0.110267 0.100868
-0.144924 -0.107717 0.094601
-0.144010 0.037704 0.125882
-0.146619 0.030724 0.126403
-0.135677 0.035486 0.126509
-0.146613 0.071105 0.037982
-0.145875 0.069524 0.036460
-0.133599 0.079668 0.035563
-0.051384 -0.096514 -0.067212
-0.038858 -0.096500 -0.051463
-0.011771 -0.079110 -0.085382
-0.035653 -0.053478 -0.023627
-0.039480 -0.056434 -0.028866
-0.039358 -0.054809 -0.029654
-0.025954 0.056138 0.130855
-0.025812 0.058286 0.128333
0.004963 -0.054463 -0.018014
-0.046665 -0.019371 -0.040158
-0.044657 -0.021757 -0.034678
-0.045613 -0.027415 -0.037077
-0.064954 -0.041064 -0.025772
-0.062657 -0.034881 -0.009369
-0.065566 -0.033131 -0.022036
-0.040397 -0.052857 -0.030773
-0.036399 -0.051933 -0.024583
-0.058784 -0.048853 -0.054884
-0.062406 -0.041720 -0.060658
-0.057154 -0.044506 -0.055487
-0.045221 -0.039302 -0.036402
-0.046851 -0.032409 -0.039937
-0.044156 -0.034165 -0.033262
-0.055471 -0.021897 0.023877
-0.051598 -0.014612 0.036662
-0.051371 -0.005519 0.043993
-0.040676 0.107545 0.033726
-0.047126 0.097516 0.033855
-0.043722 0.095626 0.039159
-0.038147 0.039155 0.087140
-0.031622 0.063054 0.102803
-0.036173 0.046499 0.093513
-0.058051 -0.057130 -0.037537
-0.057808 -0.055690 -0.026858
-0.061616 -0.053107 -0.033427
-0.018196 -0.020806 0.083675
-0.015840 -0.027089 0.081262
-0.015191 -0.022161 0.079977
-0.035195 0.049830 0.092370
-0.041593 0.031587 0.075737
-0.038302 0.039858 0.087591
-0.064853 -0.048543 -0.039732
-0.063023 -0.046619 -0.024062
-0.056874 0.047720 0.104736
-0.049617 0.059858 0.112677
-0.045397 0.049398 0.101870
-0.168883 0.022907 0.064769
-0.163015 0.027003 0.070000
-0.056590 -0.007242 0.023463
-0.059658 -0.022297 0.009425
-0.054977 -0.011471 0.030623
-0.065722 -0.021425 -0.018951
-0.062547 -0.022569 -0.003618
-0.060381 -0.008958 0.005407
-0.156457 -0.053099 0.069006
-0.169158 -0.048494 0.082222
-0.164285 -0.049299 0.084703
-0.004496 -0.044854 -0.052687
-0.000856 -0.054647 -0.028740
-0.141616 -0.070471 0.114057
-0.053134 -0.052162 -0.009841
-0.050974 -0.044996 0.004028
-0.055093 -0.046329 -0.002338
-0.149027 -0.032058 0.096598
-0.156003 -0.022582 0.100480
-0.144902 -0.036796 0.093519
-0.139968 -0.040849 0.091248
-0.153044 -0.025423 0.100790
-0.158465 -0.018071 0.103902
-0.117095 -0.057737 0.079156
-0.104081 -0.063574 0.070094
-0.122552 -0.054136 0.081008
-0.141874 -0.037803 0.092539
-0.149798 -0.026350 0.099509
-0.086293 -0.013929 0.011813
-0.081251 -0.001059 0.002917
-0.089115 -0.005661 0.017557
-0.087483 -0.068817 0.059213
-0.089419 -0.068017 0.057553
-0.093811 -0.012080 0.025570
-0.091363 -0.066808 0.055110
-0.108715 -0.060967 0.070349
-0.107093 -0.051942 0.051294
-0.120503 -0.038188 0.066401
-0.124664 -0.043478 0.073114
-0.058857 0.077172 -0.141987
-0.061477 0.082314 -0.120793
-0.055121 0.091665 -0.150935
-0.139646 -0.029364 0.090369
-0.145179 -0.017131 0.098977
-0.150579 -0.018128 0.102598
-0.075850 0.047219 0.022433
-0.069966 0.056752 0.029142
-0.078937 0.040994 0.032341
-0.080005 0.035580 0.015228
-0.078098 0.029250 0.003845
-0.073390 0.043705 0.001834
-0.159236 -0.006399 0.111404
-0.153873 -0.000705 0.112490
-0.158997 0.011061 0.119630
0.050377 0.346875 0.061318
0.053412 0.351008 0.060214
0.056635 0.351796 0.051304
-0.060313 0.073554 0.026447
-0.049187 0.092505 0.025377
-0.054272 0.079077 0.035081
-0.138625 -0.035509 0.089101
-0.142985 0.002895 0.099915
-0.138058 -0.015341 0.100613
-0.146131 0.002037 0.100978
-0.154465 -0.000421 0.101952
-0.155634 0.013319 0.104158
-0.153621 0.011469 0.103024
-0.128013 -0.039210 0.092807
-0.111219 -0.047822 0.091711
-0.112933 -0.050766 0.087277
-0.152397 0.024930 0.104244
-0.155449 0.023682 0.106493
-0.157567 -0.015707 0.100482
-0.147404 -0.031390 0.094461
-0.152903 -0.026282 0.097507
-0.165118 0.010517 0.115702
-0.162968 -0.007393 0.107886
-0.162501 -0.006576 0.110397
-0.160358 0.026165 0.121704
-0.162183 0.023594 0.117179
-0.047412 0.088682 -0.037248
-0.041551 0.095183 -0.054412
-0.039142 0.108163 -0.045095
-0.065227 0.013541 0.075448
-0.067980 0.025248 0.066042
-0.061200 0.033035 0.064889
0.002089 -0.003785 -0.104453
0.010762 -0.006757 -0.102812
0.017883 0.011439 -0.118824
-0.033345 0.110646 0.072128
-0.035843 0.114070 0.079632
-0.035508 0.120719 0.069829
-0.157521 -0.016049 0.106257
-0.023673 -0.029568 -0.068365
-0.035991 -0.041484 -0.047728
-0.017560 -0.034819 -0.067404
0.025033 0.008065 -0.111656