# vtk DataFile Version 3.0
3D Unstructured Surface
ASCII
DATASET UNSTRUCTURED_GRID
POINTS 8455 float
19.789893 32.265206 -27.455460
19.658968 32.354974 -27.535933
19.790125 32.222616 -27.622175
19.659504 32.326477 -27.730736
19.458611 30.820114 -29.984051
19.614794 30.939732 -30.053085
19.606990 30.740755 -30.007061
19.515353 32.584178 -28.263285
19.531456 32.503903 -28.107774
19.399814 32.661327 -28.101488
19.611560 32.542748 -28.392844
19.634372 32.446565 -28.272030
19.535985 32.883940 -28.668919
19.681477 32.733156 -28.691184
19.522250 32.773795 -28.544365
19.665507 32.876617 -28.784571
19.549360 32.976824 -28.757396
19.641933 33.024135 -28.856824
19.761694 33.073429 -28.942980
19.607974 33.172983 -28.908100
19.777299 33.223890 -28.992648
19.764777 33.363690 -29.013422
19.926604 33.310727 -29.034396
19.817882 33.504702 -29.030762
20.005855 33.500950 -29.036740
20.139891 33.339375 -29.049661
20.200747 33.507608 -29.032229
20.073133 33.658088 -29.019698
20.244054 33.684750 -29.006268
20.399195 33.746381 -28.977229
20.244025 33.842586 -28.983321
20.367596 33.899564 -28.960211
20.558016 33.881631 -28.925265
19.063284 31.341842 -25.458586
19.211712 31.327858 -25.630755
19.228203 31.492618 -25.490239
20.727799 34.257551 -28.775074
20.823782 34.098754 -28.779855
20.612899 34.099781 -28.862839
20.959208 34.369796 -28.586003
21.104244 34.336098 -28.456977
21.068644 34.204946 -28.570615
21.489420 34.074430 -27.607168
21.468213 34.114649 -27.844704
21.393411 34.282407 -27.695228
21.497020 33.783763 -27.101651
21.566106 33.724678 -27.265777
21.503312 33.916269 -27.275666
20.476797 31.051422 -28.659130
20.625619 30.918038 -28.553752
20.673468 31.005042 -28.725872
21.427233 33.843732 -26.917247
21.442975 33.979808 -27.103437
21.384013 34.033117 -26.913301
20.738923 32.850565 -26.251323
20.936859 32.903250 -26.288227
20.788542 33.013665 -26.185816
20.356111 32.318552 -26.763912
20.430032 32.419430 -26.612627
20.245125 32.435165 -26.657890
20.232485 32.262785 -26.918409
20.186599 32.359524 -26.786824
20.013971 32.359385 -26.905259
20.121658 32.226762 -27.065395
19.735461 32.249537 -27.953134
19.577240 32.417312 -27.950632
21.353319 34.322897 -27.911080
21.410881 34.154119 -28.054296
20.591697 32.547165 -26.451496
20.644992 32.690929 -26.337327
20.471442 32.621747 -26.407534
18.918642 30.514170 -26.439051
18.682624 30.487062 -26.403660
18.827575 30.419615 -26.567247
20.486509 32.508402 -26.505281
16.821193 30.761435 -28.928047
16.934761 30.922767 -29.025974
17.033253 30.742126 -28.966928
19.676863 32.347013 -28.137799
19.668149 32.606788 -28.557424
20.389617 30.344270 -28.747162
20.356590 30.359600 -28.946500
20.571519 30.463236 -28.855099
19.940571 33.123042 -29.015117
19.625194 36.569061 -28.790251
19.402891 36.638420 -28.819300
19.513546 36.732205 -28.722840
20.230218 36.393713 -28.361370
20.326453 36.217694 -28.395361
20.213025 36.273277 -28.516442
20.334589 36.066507 -28.520889
20.180926 36.124055 -28.671902
18.610782 31.786744 -27.637232
18.520505 31.838531 -27.802641
18.417953 31.921447 -27.636317
18.816647 31.785233 -27.056593
18.587031 31.916791 -27.036276
18.727695 31.887843 -26.853201
18.975015 31.722205 -27.007310
18.920101 31.789507 -26.863840
19.072159 31.704909 -26.909349
19.302876 31.757075 -26.357715
19.270191 31.702502 -26.604385
19.133208 31.802100 -26.503712
19.310979 31.826184 -25.978062
19.420332 31.642472 -25.899121
19.402585 31.721773 -26.147116
18.483913 30.197996 -26.866893
18.421202 30.282198 -26.682518
18.299587 30.163083 -26.882397
21.220991 34.176268 -28.420811
21.191812 34.034512 -28.544198
20.766231 32.523975 -26.456790
20.859414 32.712454 -26.351013
17.144692 30.221440 -28.689573
16.974550 30.334528 -28.720619
17.191515 30.398744 -28.829985
20.031203 30.302766 -29.489568
19.865009 30.193395 -29.324167
19.802075 30.230835 -29.530698
20.422150 33.554049 -29.012129
20.337642 33.352916 -29.049640
20.571937 33.688415 -28.961251
19.353341 31.521803 -25.698338
19.442163 31.463307 -25.864164
19.032750 30.822833 -26.046175
19.250264 30.801566 -26.168077
19.217550 30.946953 -25.992585
19.641659 30.435686 -29.867309
19.665995 30.290217 -29.717943
19.459489 30.388678 -29.810026
21.225971 34.292497 -28.321499
21.330930 34.172724 -28.244053
21.600825 33.878320 -27.778162
19.426143 33.307434 -28.852599
19.474947 33.124444 -28.789840
19.916355 32.158819 -27.489100
20.040923 32.124115 -27.359081
19.888856 32.234407 -27.332177
19.766432 32.413431 -28.459549
19.892634 32.261798 -28.424565
19.790719 32.287613 -28.295745
20.327173 33.119282 -26.058518
20.161342 33.099026 -26.091638
20.246374 32.973645 -26.167507
17.055243 31.065329 -29.111477
16.934935 31.274565 -29.171441
17.163744 31.209741 -29.191840
16.909594 31.451155 -29.236576
17.093333 31.391455 -29.245144
19.522194 31.528716 -26.040378
20.926992 33.909554 -28.789204
21.013246 34.052308 -28.685663
21.429581 34.050307 -28.179355
21.518020 33.984640 -28.019751
21.582112 33.836012 -27.480358
21.483503 34.036931 -27.411706
21.553193 33.589129 -27.119852
21.414148 33.490937 -26.746042
21.463482 33.257771 -26.799309
21.523442 33.419805 -26.966462
19.593717 31.723876 -29.992033
19.769919 31.699895 -30.049125
19.627879 31.491982 -30.060573
20.621582 32.423542 -26.559671
19.824223 32.599461 -28.708711
18.721301 31.743684 -27.466222
18.526049 31.870650 -27.422519
18.655733 31.826701 -27.236733
18.982404 31.674963 -27.168851
19.148869 31.619980 -27.079752
19.711297 31.867009 -29.955893
19.810608 32.747902 -28.806321
19.427755 31.641990 -26.500835
19.514794 31.604842 -26.284691
19.797464 32.912382 -28.892426
20.109207 33.161736 -29.048029
21.124551 33.886182 -28.674764
21.693218 33.664017 -27.635749
21.081429 32.742273 -26.420420
20.565517 32.299539 -26.715653
20.773998 32.358927 -26.597432
19.865869 32.074300 -29.583186
20.032775 31.917686 -29.599130
19.858644 31.996973 -29.805341
17.129874 30.573333 -28.909128
17.308117 30.536579 -28.945567
17.181434 30.905720 -29.076363
20.063752 31.118730 -28.244926
20.103084 31.124718 -28.464562
19.919094 31.185733 -28.400740
18.637501 30.260340 -26.793467
18.633021 30.167719 -26.972667
19.241723 31.641129 -26.852758
19.455092 31.575633 -26.687286
20.565048 31.124160 -28.863172
20.664664 31.152759 -29.053035
20.432707 31.262938 -29.036309
18.858088 31.707650 -27.282987
20.692146 30.588373 -28.652180
20.513465 30.410984 -28.617651
19.004897 31.525021 -25.159785
18.927648 31.382560 -25.282609
19.106704 31.490000 -25.319825
19.823000 32.167569 -27.787352
19.847540 32.471536 -28.619087
18.695907 31.026923 -25.609223
18.859677 31.095640 -25.614076
18.699199 31.131829 -25.465053
19.928313 32.961317 -28.968284
20.273686 33.189561 -29.062136
20.699656 33.781105 -28.912734
20.763878 33.633045 -28.933746
21.298377 33.859604 -28.541970
21.343875 34.008570 -28.382277
18.468084 30.099227 -27.064328
20.500767 30.471714 -29.123848
21.659763 33.597578 -27.414144
20.241760 30.382670 -29.384672
20.086551 30.285547 -29.267162
20.314674 32.134270 -27.068221
20.519085 32.051443 -27.044154
20.688813 31.994653 -27.016262
20.632405 32.130435 -26.892375
19.826679 32.190334 -28.134678
19.964793 32.793596 -28.917191
19.724189 30.593328 -29.962513
19.488282 30.614272 -29.935731
20.098773 32.994788 -29.026075
20.112185 32.838762 -28.990434
14.059613 31.934218 -29.149799
14.170246 31.969711 -28.983743
14.070529 31.796838 -28.948564
17.348003 31.155800 -29.217111
17.220633 31.061334 -29.148578
20.561243 33.342686 -29.037089
20.476241 33.178760 -29.069336
20.951581 33.598637 -28.878968
20.846194 33.767324 -28.868222
17.688731 30.848253 -25.305203
17.585893 30.919651 -25.137560
17.528205 30.779490 -25.343065
21.624442 33.531295 -27.259357
21.248454 33.317073 -26.442282
21.225573 33.098596 -26.438399
21.356569 33.218390 -26.602060
20.441167 32.196941 -26.898079
19.529027 31.219144 -30.042343
19.737783 31.308372 -30.109119
20.068642 31.848465 -29.878787
19.892195 31.845422 -29.969098
19.901971 32.093353 -27.981867
20.662920 33.509267 -28.987226
21.632266 33.794811 -28.013475
21.608503 33.409225 -27.147811
21.577767 33.222425 -27.009047
20.919985 32.418071 -26.544743
20.168816 32.112883 -27.227905
20.370640 31.989994 -27.245128
18.822568 30.327163 -26.728924
18.831634 30.201190 -26.970691
19.940293 32.149294 -28.308297
20.864735 33.466562 -28.947142
21.521824 33.887509 -28.199295
21.203438 32.904622 -26.453046
21.079372 33.059215 -26.317425
19.987842 32.051897 -28.169472
14.721213 30.610214 -25.989412
14.676776 30.407803 -25.784902
14.559046 30.365212 -25.956442
19.881753 30.314755 -29.676176
19.940026 32.327054 -28.563368
20.021052 32.442028 -28.736230
17.250541 30.713581 -29.012620
17.432346 30.647471 -29.040363
17.379656 30.821140 -29.097550
20.224431 33.049263 -29.058641
17.844012 31.250219 -24.108520
18.075714 31.383449 -24.124537
18.020008 31.210139 -24.262903
17.242806 31.482656 -29.308787
17.434318 31.455316 -29.343930
17.301541 31.335999 -29.270230
20.770611 33.317790 -29.010515
21.706119 33.682477 -27.836537
21.754416 33.466251 -27.559745
21.694758 33.390990 -27.331531
21.183985 32.565514 -26.553139
20.985127 32.547975 -26.473993
21.076243 32.400188 -26.597294
14.767586 33.278430 -29.557211
14.935737 33.406758 -29.386519
14.835747 33.226517 -29.354923
17.495073 30.483215 -28.984586
17.384557 30.389907 -28.892306
20.089855 31.939200 -28.017116
19.968448 32.623893 -28.827733
20.265443 32.908103 -29.048819
19.070214 33.902017 -23.777321
19.000016 33.680793 -23.728132
18.923997 33.869862 -23.648019
21.220972 33.701875 -28.688950
21.780424 33.170962 -27.396327
21.684828 33.205577 -27.211488
20.738133 30.613198 -29.076151
16.383699 31.229267 -23.663282
16.461695 31.390905 -23.753722
16.515620 31.337629 -23.553362
20.377627 33.032768 -29.077406
20.666029 33.160064 -29.061226
21.269138 32.732132 -26.551851
21.304190 32.862034 -26.557483
21.169533 31.708315 -28.831328
21.321295 31.551073 -28.776336
21.124566 31.577146 -28.680534
20.636745 31.898522 -27.166721
20.209256 32.014298 -27.369699
20.089998 32.017915 -27.537366
20.313434 31.881652 -27.506003
[...]
POINT_DATA 8455
VECTORS Displacement float
-0.029893 -0.184806 0.150560
-0.035968 -0.177574 0.133433
-0.031425 -0.188616 0.123775
-0.036504 -0.181377 0.098436
-0.009211 -0.161214 -0.012949
-0.011694 -0.152432 -0.014415
-0.008690 -0.153855 0.000161
-0.035253 -0.157978 -0.048015
-0.038156 -0.166903 -0.000326
-0.043014 -0.144827 -0.028512
-0.027860 -0.166948 -0.066756
-0.031172 -0.176865 -0.023870
-0.012285 -0.113040 -0.204581
-0.005977 -0.144356 -0.172516
-0.022550 -0.131895 -0.150935
0.004893 -0.118417 -0.228029
-0.002260 -0.095324 -0.246504
0.016167 -0.088035 -0.281276
0.042006 -0.079529 -0.316920
0.026626 -0.054883 -0.330000
0.063501 -0.044390 -0.369952
0.078723 -0.009890 -0.411378
0.106896 -0.020927 -0.411704
0.108318 0.027198 -0.453438
0.151545 0.032150 -0.461460
0.160909 -0.006175 -0.428039
0.198553 0.042492 -0.456371
0.187667 0.077012 -0.483002
0.229146 0.091550 -0.466132
0.265505 0.113519 -0.437471
0.244675 0.131414 -0.465579
0.271804 0.149036 -0.434489
0.297784 0.149069 -0.387235
-0.004884 0.034558 0.154686
-0.009112 0.034042 0.144655
-0.011603 0.033582 0.148039
0.318801 0.215149 -0.275926
0.319418 0.186746 -0.279545
0.311301 0.192819 -0.339261
0.313692 0.214504 -0.189997
0.304256 0.199202 -0.161623
0.309856 0.187654 -0.196985
0.257580 0.144670 -0.096932
0.262787 0.149451 -0.114096
0.269189 0.169293 -0.079172
0.247580 0.117937 -0.065449
0.242794 0.108622 -0.092423
0.251088 0.130031 -0.077334
-0.034797 -0.131522 0.086930
-0.035419 -0.115138 0.098152
-0.033868 -0.126942 0.085672
0.249267 0.126868 -0.033053
0.254025 0.139192 -0.047863
0.254287 0.146683 -0.014899
0.147777 -0.047165 0.224023
0.177041 -0.022550 0.179027
0.169358 -0.009965 0.210816
0.036189 -0.168852 0.228512
0.056768 -0.150530 0.240027
0.031775 -0.156965 0.249690
0.014715 -0.180785 0.217109
0.017301 -0.168924 0.236324
-0.003271 -0.171985 0.228459
-0.001458 -0.186762 0.202195
-0.033161 -0.190137 0.063934
-0.038540 -0.175012 0.045332
0.275481 0.176203 -0.094920
0.271919 0.157081 -0.127904
0.094203 -0.117465 0.237496
0.117608 -0.086429 0.237927
0.084158 -0.113847 0.257434
-0.005842 -0.006770 0.108051
-0.011924 -0.022162 0.108360
-0.006375 -0.022115 0.103347
0.074391 -0.132402 0.245581
-0.108493 -0.162335 -0.077453
-0.103961 -0.140967 -0.081726
-0.100353 -0.167526 -0.076772
-0.032763 -0.185113 0.018099
-0.017549 -0.162188 -0.114876
-0.029217 -0.069370 0.109762
-0.029490 -0.077700 0.102400
-0.037319 -0.075736 0.106899
0.083929 -0.068242 -0.355283
0.313506 0.433739 -0.013949
0.300409 0.452980 -0.040700
0.315354 0.442495 -0.005760
0.341382 0.376687 0.089270
0.333247 0.362006 0.075461
0.331075 0.374823 0.055142
0.324311 0.357293 0.041189
0.320574 0.375045 0.012502
-0.030182 -0.005744 0.080932
-0.029105 0.001769 0.059041
-0.029653 0.020953 0.065217
-0.032347 -0.006333 0.141593
-0.034231 0.015609 0.129576
-0.034195 0.007057 0.151801
-0.031715 -0.016405 0.150210
-0.032401 -0.008007 0.157940
-0.031559 -0.019009 0.157249
-0.030276 -0.011175 0.171315
-0.030991 -0.018202 0.166885
-0.031508 -0.009600 0.174912
-0.028479 0.002516 0.171662
-0.024032 0.011428 0.152921
-0.028285 -0.004073 0.164116
-0.012213 -0.074496 0.097193
-0.018102 -0.065298 0.098718
-0.018887 -0.091283 0.096897
0.296509 0.173332 -0.168289
0.302488 0.158488 -0.200902
0.116169 -0.106375 0.212390
0.149186 -0.064954 0.200213
-0.078392 -0.205440 -0.039327
-0.091050 -0.200428 -0.053681
-0.085115 -0.200644 -0.053915
-0.014503 -0.107066 0.067268
-0.005309 -0.112895 0.066967
-0.004475 -0.122835 0.054398
0.250650 0.065751 -0.431971
0.208158 0.007684 -0.422060
0.287263 0.105285 -0.400049
-0.017441 0.026297 0.145138
-0.019563 0.021093 0.140764
-0.005750 0.020467 0.127975
-0.007664 0.024034 0.117977
-0.007450 0.028947 0.127585
-0.004359 -0.145586 0.025209
-0.002095 -0.138017 0.037943
-0.000289 -0.158178 0.019326
0.293029 0.184703 -0.142801
0.283170 0.164776 -0.144747
0.244875 0.119080 -0.131938
0.011957 -0.022834 -0.347601
0.000953 -0.063344 -0.290160
-0.025155 -0.192419 0.145800
-0.016823 -0.194415 0.162881
-0.023556 -0.186907 0.169577
-0.020232 -0.187131 -0.055351
-0.017934 -0.203198 -0.023135
-0.025719 -0.195313 -0.003055
0.106927 -0.020482 0.304318
0.077458 -0.038526 0.328838
0.081826 -0.059745 0.310007
-0.096943 -0.118829 -0.084523
-0.095035 -0.079065 -0.082959
-0.088044 -0.093841 -0.085460
-0.088594 -0.044155 -0.080024
-0.082933 -0.057755 -0.083256
-0.024294 0.007384 0.144478
0.317808 0.151746 -0.283796
0.315254 0.170892 -0.238737
0.272019 0.145393 -0.148945
0.258880 0.133360 -0.141049
0.244088 0.117588 -0.108842
0.255797 0.141969 -0.080494
0.240507 0.095771 -0.079448
0.239552 0.088163 -0.016158
0.231518 0.057529 -0.021391
0.237058 0.077795 -0.057738
-0.017617 -0.122376 -0.059867
-0.014219 -0.130895 -0.052975
-0.016979 -0.133882 -0.047627
0.085118 -0.135842 0.224471
0.000877 -0.170461 -0.145889
-0.030901 -0.012284 0.103822
-0.031349 0.011650 0.093019
-0.032233 0.002599 0.118533
-0.031304 -0.022963 0.139851
-0.031269 -0.029780 0.148252
-0.014197 -0.123809 -0.064607
0.013492 -0.146702 -0.202179
-0.030355 -0.019090 0.161035
-0.028394 -0.009742 0.154291
0.029436 -0.114882 -0.263174
0.127193 -0.054836 -0.380571
0.309849 0.141118 -0.239536
0.229982 0.095083 -0.135651
0.176371 -0.042773 0.150320
0.064083 -0.159839 0.216753
0.099202 -0.132627 0.202732
-0.008869 -0.142100 -0.075914
-0.007975 -0.156186 -0.053970
-0.008844 -0.134473 -0.070759
-0.093674 -0.187233 -0.067472
-0.085617 -0.193179 -0.061933
-0.094834 -0.146720 -0.081737
-0.033452 -0.121230 0.102726
-0.032984 -0.130918 0.091362
-0.031794 -0.129133 0.090140
-0.008301 -0.055240 0.098067
-0.004821 -0.070319 0.097267
-0.031323 -0.025629 0.158558
-0.031192 -0.026933 0.155786
-0.032448 -0.140860 0.071772
-0.029664 -0.142759 0.060135
-0.029007 -0.153938 0.051309
-0.031288 -0.017950 0.126687
-0.037746 -0.081173 0.108980
-0.033065 -0.066784 0.114051
-0.004997 0.036179 0.162885
-0.002548 0.033240 0.166309
-0.007204 0.035800 0.154925
-0.030900 -0.193369 0.098652
-0.007240 -0.186636 -0.099313
-0.006707 0.016577 0.160823
-0.003577 0.025260 0.156976
-0.004899 0.020571 0.169453
0.059387 -0.106317 -0.298416
0.169414 -0.040161 -0.391364
0.306344 0.128895 -0.360366
0.302922 0.097455 -0.355854
0.294023 0.129796 -0.207130
0.285525 0.146130 -0.174623
-0.008484 -0.091627 0.097128
-0.036867 -0.084014 0.096548
0.232037 0.091522 -0.117956
-0.025260 -0.095270 0.080272
-0.016551 -0.098347 0.079862
0.013226 -0.190870 0.192621
0.031315 -0.187143 0.182954
0.047987 -0.178953 0.174262
0.055195 -0.174535 0.192375
-0.028279 -0.198534 0.038178
0.044207 -0.141896 -0.241909
-0.008589 -0.144328 0.017913
-0.005282 -0.160272 0.004031
0.099427 -0.096988 -0.327325
0.078615 -0.132462 -0.274966
-0.212813 0.304982 -0.002501
-0.215846 0.301489 -0.004957
-0.224729 0.285362 -0.026036
-0.082703 -0.106700 -0.084689
-0.090633 -0.121634 -0.084722
0.250257 0.018414 -0.393211
0.211059 -0.030260 -0.379064
0.309419 0.092963 -0.312432
0.313906 0.126576 -0.323478
-0.059631 -0.037853 0.165103
-0.063293 -0.034751 0.176960
-0.067205 -0.050290 0.156565
0.234058 0.086905 -0.101743
0.226346 0.064027 0.059182
0.214227 0.028104 0.082699
0.226631 0.050710 0.025260
0.035833 -0.180241 0.206679
-0.015827 -0.145944 -0.037157
-0.015283 -0.141372 -0.033081
-0.005842 -0.147165 -0.051713
-0.009995 -0.135022 -0.057902
-0.027871 -0.200553 0.072167
0.283480 0.065533 -0.382774
0.243534 0.107989 -0.154025
0.232397 0.074675 -0.088289
0.227833 0.053175 -0.062153
0.124315 -0.110071 0.185443
-0.005216 -0.194583 0.177305
0.006960 -0.195894 0.166528
-0.004168 -0.034563 0.099724
0.000666 -0.053290 0.097891
-0.020893 -0.207594 0.013397
0.298365 0.063238 -0.338158
0.261376 0.122491 -0.162105
0.199862 -0.006322 0.105946
0.202228 0.015185 0.132025
-0.022942 -0.207797 0.046672
-0.174013 -0.011314 0.017712
-0.147376 -0.010703 0.011002
-0.155446 -0.003312 -0.011358
-0.009053 -0.121155 0.050976
-0.008426 -0.203054 -0.060632
0.011748 -0.197128 -0.118270
-0.091841 -0.174181 -0.073580
-0.083546 -0.184771 -0.066537
-0.087556 -0.162340 -0.076550
0.135769 -0.079063 -0.351959
-0.020412 0.012981 0.203720
-0.011014 0.024651 0.201437
-0.011608 0.011161 0.200803
-0.071506 -0.041456 -0.082013
-0.065018 -0.050516 -0.081370
-0.076741 -0.071499 -0.084270
0.276389 0.024610 -0.354685
0.230581 0.094823 -0.148963
0.219784 0.074749 -0.136955
0.224542 0.070210 -0.114269
0.168815 -0.064914 0.133339
0.146373 -0.083775 0.175993
0.141257 -0.099488 0.159294
-0.181886 0.426270 0.103011
-0.174137 0.438642 0.098519
-0.179547 0.423683 0.094223
-0.076073 -0.200415 -0.053514
-0.076857 -0.204107 -0.048694
-0.021855 -0.206500 0.077216
0.024052 -0.171893 -0.178867
0.121657 -0.111903 -0.309981
-0.100614 0.098183 0.208821
-0.093816 0.097307 0.183532
-0.104597 0.100038 0.191619
0.302528 0.109325 -0.242350
0.210876 0.046038 -0.119673
0.220472 0.050723 -0.096012
-0.041233 -0.089498 0.093951
-0.092299 0.018833 0.194482
-0.106095 0.021595 0.216322
-0.091420 0.026571 0.199062
0.166673 -0.074868 -0.349394
0.241971 -0.021264 -0.355674
0.190362 -0.031532 0.100351
0.202810 -0.008034 0.077783
0.061567 -0.177215 -0.010272
0.055905 -0.159673 0.012436
0.040934 -0.178546 0.022034
0.031155 -0.186022 0.162021
-0.008356 -0.198098 0.156899
-0.018798 -0.198615 0.137766
-0.007634 -0.198552 0.137803
-0.023928 -0.101121 0.069846
-0.032053 -0.036832 0.149350
-0.016105 -0.213618 0.048073
0.197061 -0.073750 -0.329833
0.301257 0.059735 -0.295875
0.304721 0.085786 -0.269788
0.218139 0.020778 0.013133
0.209361 -0.000597 0.001962
0.220303 0.028273 -0.030927
-0.011975 -0.143880 0.007944
0.203392 -0.012546 0.052928
0.116863 -0.125892 0.174901
0.084592 -0.154185 0.189382
-0.018876 0.021722 0.131830
-0.024513 0.005489 0.134636
-0.097003 0.429347 0.047942
-0.098912 0.423817 0.037252
-0.085955 0.400457 0.010654
-0.016699 -0.213766 0.021928
0.006977 -0.217559 -0.058581
0.268542 -0.005991 -0.323287
0.288776 0.028233 -0.315244
0.293521 0.055416 -0.257889
0.283094 0.099392 -0.211347
0.290579 0.080850 -0.234497
-0.079505 -0.173992 -0.069351
-0.060961 -0.023014 -0.079334
-0.053866 -0.027601 -0.077599
-0.030745 0.129483 -0.069899
-0.020696 0.125743 -0.070371
-0.026715 0.097687 -0.068894
0.212317 0.057527 -0.133372
0.209013 0.058429 -0.147869
0.194089 -0.034383 0.042289
-0.034953 0.174891 0.464004
-0.038748 0.159580 0.455369
-0.027437 0.175395 0.510542
-0.009228 -0.183943 -0.015576
-0.002855 -0.174960 0.000484
-0.000919 -0.187418 0.004042
-0.010604 -0.139288 -0.044216
0.160795 -0.083777 0.121143
0.132705 -0.115343 0.146949
0.071296 -0.165829 0.172543
-0.009472 -0.215404 -0.017538
-0.012350 -0.001005 0.194883
-0.004313 -0.000262 0.188778
-0.015142 -0.011488 0.186137
0.151587 -0.120547 -0.287732
0.097208 -0.155091 -0.244660
-0.071751 0.073254 0.056818
-0.068392 0.088516 0.093085
-0.068180 0.102797 0.022581
-0.012277 0.017418 0.106596
-0.012932 0.023555 0.111860
-0.008101 0.018389 0.110051
0.000718 -0.077777 0.097754
-0.019493 0.094961 -0.068853
-0.024236 0.075034 -0.068433
-0.057709 -0.053735 0.136710
-0.054785 -0.061494 0.124825
-0.048243 -0.044366 0.135170
-0.082999 0.012072 0.194601
-0.076066 0.013794 0.198255
-0.073432 0.001224 0.191583
0.218054 0.075512 -0.151164
0.209232 0.007278 -0.039269
0.216942 0.031665 -0.068558
0.185146 -0.048086 0.085530
-0.018547 0.020655 0.115144
-0.012500 0.027986 0.118825
0.005849 -0.062472 0.098522
-0.038802 -0.090584 0.099883
-0.036133 -0.104739 0.098416
-0.010587 -0.198768 0.115833
-0.016644 -0.200800 0.119248
-0.024242 -0.201018 0.104090
-0.018014 -0.203107 0.100075
-0.015589 -0.208169 0.077115
-0.007896 -0.215412 0.048262
0.036985 -0.189882 -0.161562
0.034300 -0.209708 -0.115705
0.055584 -0.168572 -0.210987
0.232339 -0.056445 -0.310379
0.288453 0.026050 -0.278638
0.208328 0.029448 -0.097984
0.088746 -0.152062 0.148260
0.123504 -0.125654 0.135925
0.102673 -0.142902 0.163587
-0.078632 -0.024387 0.157540
-0.082284 -0.015060 0.166602
-0.073752 -0.025179 0.161879
-0.129882 0.140331 0.243482
-0.126505 0.140678 0.288354
-0.134370 0.133117 0.274692
-0.006329 -0.220490 0.010766
0.193658 -0.099990 -0.284474
0.259595 0.082792 -0.192888
0.250936 0.055650 -0.195466
0.271977 0.073484 -0.210593
0.224456 0.076718 -0.164273
0.209171 0.056957 -0.159528
0.197607 -0.022567 -0.004966
0.174341 -0.067969 0.079045
0.149416 -0.099661 0.114815
0.054232 -0.173149 0.159156
0.010522 -0.191466 0.145107
0.034929 -0.178467 0.144664
-0.010391 -0.200974 0.097702
-0.043863 -0.004507 -0.073881
-0.046476 -0.036157 -0.074475
0.199792 0.041200 -0.151806
0.201840 0.040527 -0.160072
0.160511 -0.086631 0.079405
0.182022 -0.054784 0.035007
0.315930 0.262652 0.192461
0.307096 0.252332 0.154855
0.316205 0.266336 0.180541
0.000352 -0.192584 0.126625
-0.014530 0.111765 -0.072229
-0.000499 -0.221377 -0.020016
0.011068 -0.224354 -0.021800
0.214417 0.052088 -0.168943
0.234045 0.066729 -0.178572
-0.151916 0.467722 0.099527
-0.132346 0.453021 0.074008
-0.142498 0.471058 0.095456
0.199077 0.027103 -0.121167
0.197531 -0.008259 -0.051347
0.051101 -0.213267 -0.106762
0.057910 -0.204522 -0.137771
0.111704 -0.167828 -0.215836
0.065281 -0.189467 -0.176533
0.179647 -0.125312 -0.239557
0.147096 -0.156804 -0.194585
0.153492 -0.142643 -0.238490
0.278087 0.002121 -0.294321
0.274770 0.020314 -0.237155
0.270861 0.048392 -0.218566
0.224952 0.041060 -0.178621
0.203222 0.042624 -0.136575
0.197447 0.009353 -0.091561
0.206294 0.014269 -0.072525
0.118242 -0.128052 0.121840
-0.031912 0.123286 0.508796
-0.025128 0.111689 0.509240
-0.016430 0.138534 0.536765
-0.006458 -0.205874 0.075793
0.220552 -0.084846 -0.256390
0.258537 -0.032518 -0.286180
0.322436 0.279193 0.189108
0.324143 0.277225 0.208620
0.060898 -0.163603 0.141504
0.017320 -0.182073 0.129528
0.006519 -0.186513 0.113925
-0.113456 -0.015488 0.179688
-0.140883 -0.022661 0.196171
-0.138933 -0.017030 0.208724
-0.014400 -0.137996 -0.037853
-0.030348 -0.041785 0.081822
-0.030422 -0.027324 0.092249
-0.030565 -0.047971 0.101461
-0.003566 -0.194283 0.110522
0.271300 -0.008030 -0.260277
-0.131231 -0.025192 -0.052242
-0.118139 -0.044532 -0.031483
-0.119044 -0.046305 -0.047847
0.243528 0.028619 -0.193777
0.204128 0.030004 -0.164511
0.139364 -0.109784 0.110054
0.003942 -0.220315 0.020638
0.026832 -0.220711 -0.071183
0.037142 -0.221028 -0.052986
0.189331 -0.033750 -0.012512
-0.135681 0.413790 0.050977
-0.133595 0.434288 0.060939
-0.145876 0.441654 0.076300
-0.000950 -0.195115 0.095740
-0.000486 -0.212067 0.051776
-0.156856 0.457556 0.088651
-0.149941 0.421216 0.059727
-0.167125 0.444012 0.090566
0.041091 -0.168204 0.130289
0.013455 -0.208976 0.036199
0.004484 -0.199261 0.071479
-0.074494 -0.193042 -0.058304
-0.026237 -0.150784 0.044936
-0.202273 0.331237 0.028926
-0.196148 0.349814 0.048592
-0.202223 0.333170 0.029974
-0.034348 -0.090782 0.086580
-0.040109 -0.090740 0.089177
-0.002448 0.029826 0.162703
-0.140575 -0.024866 0.068355
-0.159656 -0.029156 0.092622
-0.131759 -0.026562 0.082103
-0.067438 -0.137605 -0.073124
-0.075653 -0.124425 -0.079965
-0.063963 -0.102270 -0.077546
-0.029679 -0.021922 0.064316
-0.029731 -0.043958 0.045970
-0.028415 -0.014034 0.038776
-0.014380 -0.142953 -0.001644
-0.014395 -0.144847 -0.018788
-0.015514 -0.141149 -0.020240
0.178498 -0.052654 0.004259
0.164556 -0.077349 0.047614
0.093827 -0.142417 0.128390
0.068763 -0.152209 0.126823
0.096990 -0.132996 0.111251
0.245696 -0.050033 -0.243864
0.254595 -0.017465 -0.221265
0.248941 0.002765 -0.203004
-0.006338 0.033170 0.197043
-0.002080 0.021818 0.197118
0.192516 0.023493 -0.150789
0.189209 0.006109 -0.108327
0.191064 0.020797 -0.134340
-0.215906 0.291742 -0.021361
-0.220372 0.290195 -0.023139
-0.230623 0.272468 -0.048569
-0.032279 -0.096677 0.076436
-0.201853 0.033615 -0.117734
-0.178416 0.032457 -0.104148
-0.188112 0.034516 -0.115775
0.188649 -0.009909 -0.076272
0.314098 0.159721 -0.332458
0.023557 -0.174175 0.117237
0.012888 -0.181191 0.101531
-0.021937 -0.093642 0.064702
-0.023969 -0.102096 0.054638
-0.016607 -0.106844 0.052129
-0.016310 0.004152 0.104217
-0.018100 0.011933 0.105747
-0.010977 0.010462 0.103706
0.120065 -0.173599 -0.189331
0.143798 -0.158353 -0.158124
0.182032 -0.125861 -0.206173
-0.085027 -0.131502 -0.050938
-0.095090 -0.135221 -0.062390
-0.092887 -0.127765 -0.057172
-0.026624 0.024301 0.204376
-0.018150 0.031329 0.201790
0.185350 -0.031035 -0.036151
-0.117094 -0.062541 -0.062023
-0.108703 -0.069517 -0.048022
-0.110770 -0.075411 -0.056209
-0.176552 -0.082568 -0.089632
-0.175751 -0.076096 -0.076544
-0.186613 -0.064134 -0.090304
-0.093802 -0.120576 -0.054362
-0.084401 -0.124311 -0.046090
-0.146280 -0.096948 -0.102450
-0.159097 -0.078970 -0.114514
-0.142753 -0.089452 -0.101332
-0.106952 -0.092724 -0.057625
-0.114068 -0.080749 -0.064164
-0.103744 -0.086965 -0.049069
-0.161655 -0.069504 -0.050531
-0.151776 -0.066810 -0.042791
-0.162143 -0.043003 -0.036091
-0.020981 0.067387 -0.068184
-0.020507 0.050212 -0.068198
-0.027219 0.045674 -0.068741
-0.146972 0.019303 -0.009268
-0.148497 0.062958 0.001302
-0.155898 0.039704 -0.002650
-0.143424 -0.124100 -0.089094
-0.144535 -0.126924 -0.083226
-0.156213 -0.112802 -0.089736
0.006679 -0.131709 0.060709
-0.000397 -0.141469 0.048517
0.001890 -0.129131 0.059590
-0.171172 0.058159 -0.002427
-0.175012 0.029618 -0.014135
-0.163879 0.034781 -0.005498
-0.168385 -0.095795 -0.098241
-0.165798 -0.099154 -0.085240
-0.026241 0.067854 0.198266
-0.024277 0.086417 0.214477
-0.006011 0.077347 0.198379
-0.033110 -0.044432 0.139070
-0.032331 -0.046395 0.142808
-0.186600 -0.026119 -0.054762
-0.178931 -0.055409 -0.063057
-0.172697 -0.043702 -0.046083
-0.200859 -0.037417 -0.094303
-0.189195 -0.047709 -0.076515
-0.199429 -0.019769 -0.074084
-0.018124 -0.165463 0.010166
-0.024132 -0.159493 0.033585
-0.021120 -0.155430 0.029240
0.180935 -0.013172 -0.090642
0.178159 -0.030500 -0.057958
-0.031970 -0.174349 0.171732
-0.134289 -0.135445 -0.074047
-0.131093 -0.131108 -0.067762
-0.142475 -0.122022 -0.069534
-0.019160 -0.097315 0.053811
-0.026312 -0.089385 0.066426
-0.014283 -0.093304 0.058913
-0.009651 -0.104493 0.040442
-0.024162 -0.101970 0.049081
-0.029481 -0.093301 0.061704
0.015615 -0.101495 0.033615
0.030480 -0.105797 0.015545
0.009676 -0.106669 0.028368
-0.012253 -0.109242 0.034972
-0.021672 -0.111166 0.036997
0.010006 -0.100831 -0.088325
0.007282 -0.082149 -0.100105
0.001265 -0.095445 -0.083991
0.049530 -0.102189 0.002876
0.048289 -0.108199 -0.004896
0.000807 -0.106962 -0.074634
0.046722 -0.114508 -0.013112
0.025587 -0.112427 0.008908
0.019991 -0.135428 -0.030988
0.000509 -0.135371 -0.017675
0.001757 -0.131358 -0.004832
-0.031820 0.032003 -0.335367
-0.047165 0.032179 -0.297850
-0.038005 0.054864 -0.349761
-0.014180 -0.125251 0.014220
-0.020967 -0.122900 0.020344
-0.024182 -0.116079 0.031956
-0.016277 -0.028588 -0.084723
-0.017173 -0.015763 -0.078055
-0.018982 -0.043653 -0.079045
-0.013476 -0.042393 -0.091087
-0.007677 -0.044877 -0.101233
-0.010199 -0.023755 -0.102880
-0.032012 -0.104570 0.049504
-0.028633 -0.112929 0.038060
-0.032830 -0.101539 0.054048
-0.059604 0.428727 -0.013121
-0.053725 0.429968 -0.020498
-0.050941 0.419323 -0.024313
-0.014429 0.013705 -0.075840
-0.011690 0.046043 -0.071853
-0.015508 0.020712 -0.068085
-0.011021 -0.121965 0.017896
-0.008995 -0.038171 0.125786
-0.004899 -0.050223 0.121597
-0.012457 -0.042852 0.122911
-0.022604 -0.056074 0.109310
-0.024467 -0.050833 0.111922
-0.021595 -0.047796 0.115627
0.003681 -0.067865 0.101541
0.019170 -0.065818 0.105531
0.017834 -0.070617 0.094336
-0.021833 -0.044567 0.115192
-0.025804 -0.050994 0.109333
-0.027125 -0.076717 0.084109
-0.016185 -0.081389 0.078309
-0.022420 -0.084963 0.072741
-0.037363 -0.082557 0.075951
-0.034250 -0.086511 0.071067
-0.034391 -0.093931 0.062270
-0.033937 -0.081795 0.076478
-0.034896 -0.073216 0.085758
-0.003317 0.056616 -0.146760
0.000996 0.070967 -0.170631
-0.003863 0.087754 -0.154799
-0.041878 -0.106153 -0.062351
-0.034811 -0.083330 -0.065506
-0.037635 -0.068001 -0.065129
0.161088 -0.024089 -0.241737
0.183198 -0.019622 -0.235040
0.187100 0.007178 -0.259406
-0.081448 0.079127 0.192751
-0.096138 0.074670 0.215830
-0.091033 0.086848 0.201769
-0.029454 -0.102775 0.050259
0.125068 -0.071888 -0.191680
0.110254 -0.092084 -0.162132