# vtk DataFile Version 3.0
3D Unstructured Surface
ASCII
DATASET UNSTRUCTURED_GRID
POINTS 8455 float
19.761247 32.232292 -27.457909
19.633376 32.322730 -27.534655
19.757286 32.193370 -27.628494
19.629923 32.298046 -27.732542
19.398121 30.890081 -29.939769
19.549745 31.003782 -30.014728
19.541224 30.812940 -29.966971
19.488574 32.560693 -28.255197
19.503931 32.479300 -28.102632
19.378786 32.634673 -28.090310
19.580789 32.521507 -28.386215
19.601675 32.425063 -28.269259
19.512901 32.861381 -28.653641
19.652371 32.712657 -28.678949
19.497687 32.751300 -28.530949
19.639550 32.855102 -28.769781
19.527563 32.953963 -28.741200
19.619192 33.001356 -28.840639
19.737817 33.050175 -28.927005
19.588437 33.148760 -28.891588
19.755870 33.198729 -28.976671
19.745856 33.336704 -28.997979
19.904406 33.283367 -29.018890
19.800318 33.475323 -29.016308
19.985508 33.469913 -29.022138
20.115135 33.309575 -29.034463
20.177762 33.474478 -29.017593
20.054054 33.623955 -29.006217
20.222952 33.648567 -28.992842
20.376886 33.707882 -28.964098
20.224914 33.804226 -28.971378
20.347550 33.859470 -28.948646
20.535530 33.840250 -28.913110
19.062267 31.308082 -25.475078
19.205315 31.293896 -25.654173
19.227015 31.452137 -25.505907
20.708292 34.211746 -28.766153
20.801646 34.053809 -28.769325
20.592460 34.055841 -28.852668
20.940198 34.322830 -28.578105
21.084708 34.289026 -28.448795
21.046998 34.158428 -28.561051
21.470635 34.026050 -27.595025
21.447942 34.066453 -27.833871
21.377395 34.234735 -27.684863
21.480611 33.734738 -27.083648
21.546302 33.675423 -27.249711
21.486062 33.867539 -27.260205
20.391897 31.071809 -28.692018
20.543305 30.934406 -28.587043
20.592158 31.020496 -28.756366
21.414796 33.795286 -26.896954
21.429296 33.931660 -27.086344
21.374237 33.985837 -26.894201
20.735704 32.797767 -26.213014
20.931933 32.851511 -26.252932
20.788170 32.960709 -26.143124
20.337083 32.272177 -26.750650
20.415562 32.370454 -26.592353
20.231424 32.386503 -26.637282
20.209858 32.219252 -26.910836
20.169178 32.313262 -26.772382
19.995781 32.315168 -26.893351
20.095960 32.186231 -27.062731
19.699097 32.225933 -27.959567
19.548465 32.391445 -27.948974
21.336160 34.275272 -27.901989
21.389854 34.106263 -28.044237
20.581512 32.496203 -26.424424
20.638738 32.638661 -26.303937
20.464199 32.569588 -26.375487
18.895251 30.532773 -26.471200
18.666723 30.510333 -26.429489
18.805281 30.445668 -26.594011
20.475351 32.457829 -26.479750
16.866860 30.796653 -28.879072
16.976061 30.955244 -28.972683
17.072934 30.780807 -28.916640
19.642024 32.324980 -28.139541
19.636872 32.586615 -28.548546
20.307397 30.387994 -28.768905
20.273501 30.408737 -28.963505
20.489100 30.497514 -28.880656
19.914873 33.098366 -28.999603
19.625300 36.510401 -28.758222
19.402712 36.577406 -28.776632
19.514975 36.674123 -28.686011
20.236409 36.341541 -28.354014
20.330842 36.165283 -28.390287
20.216004 36.219530 -28.507429
20.335878 36.012906 -28.514709
20.180623 36.068613 -28.660620
18.592390 31.780062 -27.662298
18.504423 31.832825 -27.821571
18.408230 31.912806 -27.652965
18.799667 31.767536 -27.089228
18.579139 31.899399 -27.060088
18.718293 31.865966 -26.879570
18.953264 31.702839 -27.044296
18.903807 31.766699 -26.896595
19.049404 31.682683 -26.947368
19.288234 31.720205 -26.386374
19.249442 31.671642 -26.639754
19.119538 31.769095 -26.532720
19.305674 31.782411 -25.995842
19.411314 31.600473 -25.922683
19.390165 31.681369 -26.173073
18.471868 30.238912 -26.872257
18.412119 30.319391 -26.691678
18.294554 30.205906 -26.880855
21.198925 34.129297 -28.411053
21.167403 33.988171 -28.532972
20.754732 32.473801 -26.431870
20.851752 32.661157 -26.320064
17.182802 30.269050 -28.650373
17.017727 30.378963 -28.680427
17.227870 30.445975 -28.786126
19.954181 30.373019 -29.478793
19.792378 30.268445 -29.310945
19.731715 30.308393 -29.509399
20.396946 33.517995 -28.997742
20.310503 33.320842 -29.034731
20.546836 33.649119 -28.947496
19.347067 31.481114 -25.720215
19.430053 31.425152 -25.892400
19.014492 30.818789 -26.082358
19.224924 30.796130 -26.208003
19.197961 30.932709 -26.029869
19.575496 30.515107 -29.831113
19.599972 30.370581 -29.686721
19.399886 30.470520 -29.769221
21.206038 34.245254 -28.312921
21.309303 34.125277 -28.234312
21.577165 33.829637 -27.766270
19.411997 33.281516 -28.836007
19.457120 33.100141 -28.772793
19.882388 32.127570 -27.497147
20.007187 32.090398 -27.366642
19.860365 32.199297 -27.334442
19.728966 32.394795 -28.457772
19.849123 32.244861 -28.429328
19.750593 32.268705 -28.299828
20.336185 33.063164 -25.996813
20.171472 33.042095 -26.026414
20.252006 32.917542 -26.111289
17.091940 31.094917 -29.055099
16.973313 31.295497 -29.112746
17.195973 31.235654 -29.133579
16.947215 31.465432 -29.176287
17.126045 31.410024 -29.185631
19.506288 31.490363 -26.070972
20.901709 33.865440 -28.776770
20.989498 34.006774 -28.674523
21.406193 34.002605 -28.168682
21.494352 33.936488 -28.008683
21.560891 33.787005 -27.466650
21.466346 33.988532 -27.397992
21.534201 33.539652 -27.101602
21.401430 33.441304 -26.721291
21.448033 33.208007 -26.775450
21.505738 33.370145 -26.945551
19.540188 31.749882 -29.970781
19.712741 31.726380 -30.033167
19.569731 31.528787 -30.034414
20.607245 32.374325 -26.538882
19.789469 32.580722 -28.700208
18.700411 31.734872 -27.497081
18.514319 31.860075 -27.445478
18.641535 31.813164 -27.264986
18.956506 31.659857 -27.208107
19.118804 31.602505 -27.122777
19.658157 31.886397 -29.941867
19.779353 32.727967 -28.794138
19.405046 31.608837 -26.536939
19.494927 31.568155 -26.317893
19.769864 32.890868 -28.877693
20.081846 33.135114 -29.032921
21.098068 33.840988 -28.662115
21.667885 33.615136 -27.623016
21.071762 32.692097 -26.392004
20.546257 32.252640 -26.701661
20.757654 32.310758 -26.579252
19.813299 32.080903 -29.580563
19.974003 31.928043 -29.601459
19.805315 32.009075 -29.799430
17.167543 30.617026 -28.861782
17.340318 30.583618 -28.897527
17.215605 30.941912 -29.021901
19.981889 31.138502 -28.289890
20.018657 31.149061 -28.504187
19.838514 31.209332 -28.441875
18.619978 30.297478 -26.806887
18.614964 30.209660 -26.979644
19.214645 31.617113 -26.893915
19.425869 31.547472 -26.729007
20.482270 31.142820 -28.891425
20.584579 31.170302 -29.077487
20.350648 31.283897 -29.060336
18.834701 31.695317 -27.318933
20.611379 30.610599 -28.683145
20.431862 30.444439 -28.644945
19.011766 31.484785 -25.163173
18.931608 31.348633 -25.291741
19.109740 31.449954 -25.329396
19.785295 32.142109 -27.797430
19.809455 32.453720 -28.614865
18.693778 31.015406 -25.630072
18.855466 31.077213 -25.636841
18.700259 31.114203 -25.481056
19.899680 32.938896 -28.953616
20.244678 33.160868 -29.047419
20.674455 33.739728 -28.899518
20.736139 33.592784 -28.919629
21.271225 33.813516 -28.529432
21.319181 33.961530 -28.371105
18.456306 30.144420 -27.062341
20.417337 30.514435 -29.142487
21.636295 33.548404 -27.399624
20.160131 30.442942 -29.386241
20.007278 30.352456 -29.264956
20.285490 32.094191 -27.068469
20.488340 32.011171 -27.044852
20.658260 31.953953 -27.015497
20.606578 32.086948 -26.886408
19.784769 32.170511 -28.143775
19.932101 32.773138 -28.904853
19.654746 30.668513 -29.927268
19.426586 30.691324 -29.892342
20.068422 32.970861 -29.011909
20.078476 32.817031 -28.978181
14.187815 31.841905 -29.090219
14.298360 31.881313 -28.921927
14.201432 31.707933 -28.891275
17.374981 31.185657 -29.159269
17.252415 31.093035 -29.091718
20.531397 33.308388 -29.022530
20.444726 33.148133 -29.055308
20.922001 33.557136 -28.864678
20.819573 33.724968 -28.854760
17.707803 30.865214 -25.304125
17.607748 30.935275 -25.133976
17.550509 30.801525 -25.339862
21.602557 33.481945 -27.243000
21.241425 33.266910 -26.410585
21.217309 33.048168 -26.407350
21.345084 33.168394 -26.574502
20.416541 32.153304 -26.891721
19.469386 31.269998 -30.006262
19.674012 31.353623 -30.082280
20.009558 31.864541 -29.877515
19.835795 31.864430 -29.960935
19.857961 32.072403 -27.995799
20.634434 33.471475 -28.972733
21.605729 33.746594 -28.001808
21.587419 33.359829 -27.129805
21.558048 33.173137 -26.988850
20.905334 32.369525 -26.524061
20.136473 32.076366 -27.233099
20.334098 31.954422 -27.253548
18.798886 30.359225 -26.750886
18.806057 30.240844 -26.984773
19.893702 32.132531 -28.318576
20.833981 33.427368 -28.932642
21.495773 33.839828 -28.187769
21.193803 32.854468 -26.423815
21.074223 33.008064 -26.282546
19.939068 32.034579 -28.184718
14.802005 30.622381 -25.988336
14.742872 30.420464 -25.774390
14.629564 30.374487 -25.939715
19.809103 30.390235 -29.654224
19.896874 32.310606 -28.564927
19.979339 32.425195 -28.733281
17.283782 30.755977 -28.961288
17.459975 30.694083 -28.989107
17.408124 30.862405 -29.043485
20.193510 33.023446 -29.044628
17.863372 31.239277 -24.081569
18.094460 31.364643 -24.098179
18.037586 31.195962 -24.238753
17.270147 31.499420 -29.249751
17.455750 31.474918 -29.286184
17.328368 31.358791 -29.211573
20.738521 33.281649 -28.996277
21.679247 33.633947 -27.824541
21.727870 33.417632 -27.546446
21.670607 33.342039 -27.316012
21.170612 32.516938 -26.529389
20.973044 32.498529 -26.449545
21.060762 32.352373 -26.576906
14.880564 33.176879 -29.489016
15.045461 33.305516 -29.312824
14.948239 33.127747 -29.279083
17.521134 30.534151 -28.936273
17.414645 30.440347 -28.846935
20.038486 31.920883 -28.037332
19.931870 32.605306 -28.819025
20.231327 32.884206 -29.036482
19.095531 33.854395 -23.710175
19.023816 33.634583 -23.664535
18.947041 33.824311 -23.581212
21.191674 33.657316 -28.675219
21.754318 33.123121 -27.381396
21.661546 33.156935 -27.194351
20.657821 30.640060 -29.102385
16.414542 31.242327 -23.641052
16.496652 31.404567 -23.736143
16.545495 31.348519 -23.528642
20.344641 33.005757 -29.064230
20.632464 33.127648 -29.047787
21.256605 32.683062 -26.526223
21.292048 32.812563 -26.530847
21.116259 31.692186 -28.842874
21.270378 31.533898 -28.788429
21.068670 31.562182 -28.695186
20.600847 31.861305 -27.172105
20.171099 31.981540 -27.381065
20.049275 31.988959 -27.551793
20.268583 31.852902 -27.523158
[...]
POINT_DATA 8455
VECTORS Displacement float
-0.001247 -0.151892 0.153009
-0.010376 -0.145330 0.132155
0.001414 -0.159370 0.130094
-0.006923 -0.152946 0.100242
0.051279 -0.231181 -0.057231
0.053355 -0.216482 -0.052772
0.057076 -0.226040 -0.039929
-0.008474 -0.134493 -0.056103
-0.010631 -0.142300 -0.005468
-0.021986 -0.118173 -0.039690
0.002911 -0.145707 -0.073385
0.001525 -0.155363 -0.026641
0.010799 -0.090481 -0.219859
0.023129 -0.123857 -0.184751
0.002013 -0.109400 -0.164351
0.030850 -0.096902 -0.242819
0.019537 -0.072463 -0.262700
0.038908 -0.065256 -0.297461
0.065883 -0.056275 -0.332895
0.046163 -0.030660 -0.346512
0.084930 -0.019229 -0.385929
0.097644 0.017096 -0.426821
0.129094 0.006433 -0.427210
0.125882 0.056577 -0.467892
0.171892 0.063187 -0.476062
0.185665 0.023625 -0.443237
0.221538 0.075622 -0.471007
0.206746 0.111145 -0.496483
0.250248 0.127733 -0.479558
0.287814 0.152018 -0.450602
0.263786 0.169774 -0.477522
0.291850 0.189130 -0.446054
0.320270 0.190450 -0.399390
-0.003867 0.068318 0.171178
-0.002715 0.068004 0.168073
-0.010415 0.074063 0.163707
0.338308 0.260954 -0.284847
0.341554 0.231691 -0.290075
0.331740 0.236759 -0.349432
0.332702 0.261470 -0.197895
0.323792 0.246274 -0.169805
0.331502 0.234172 -0.206549
0.276365 0.193050 -0.109075
0.283058 0.197647 -0.124929
0.285205 0.216965 -0.089537
0.263989 0.166962 -0.083452
0.262598 0.157877 -0.108489
0.268338 0.178761 -0.092795
0.050103 -0.151909 0.119818
0.046895 -0.131506 0.131443
0.047442 -0.142396 0.116166
0.261704 0.175314 -0.053346
0.267704 0.187340 -0.064956
0.264063 0.193963 -0.033999
0.150996 0.005633 0.185714
0.181967 0.029189 0.143732
0.169730 0.042991 0.168124
0.055217 -0.122477 0.215250
0.071238 -0.101554 0.219753
0.045476 -0.108303 0.229082
0.037342 -0.137252 0.209536
0.034722 -0.122662 0.221882
0.014919 -0.127768 0.216551
0.024240 -0.146231 0.199531
0.003203 -0.166533 0.070367
-0.009765 -0.149145 0.043674
0.292640 0.223828 -0.104011
0.292946 0.204937 -0.137963
0.104388 -0.066503 0.210424
0.123862 -0.034161 0.204537
0.091401 -0.061688 0.225387
0.017549 -0.025373 0.140200
0.003977 -0.045433 0.134189
0.015919 -0.048168 0.130111
0.085549 -0.081829 0.220050
-0.154160 -0.197553 -0.126428
-0.145261 -0.173444 -0.135017
-0.140034 -0.206207 -0.127060
0.002076 -0.163080 0.019841
0.013728 -0.142015 -0.123754
0.053003 -0.113094 0.131505
0.053599 -0.126837 0.119405
0.045100 -0.110014 0.132456
0.109627 -0.043566 -0.370797
0.313400 0.492399 -0.045978
0.300588 0.513994 -0.083368
0.313925 0.500577 -0.042589
0.335191 0.428859 0.081914
0.328858 0.414417 0.070387
0.328096 0.428570 0.046129
0.323022 0.410894 0.035009
0.320877 0.430487 0.001220
-0.011790 0.000938 0.105998
-0.013023 0.007475 0.077971
-0.019930 0.029594 0.081865
-0.015367 0.011364 0.174228
-0.026339 0.033001 0.153388
-0.024793 0.028934 0.178170
-0.009964 0.002961 0.187196
-0.016107 0.014801 0.190695
-0.008804 0.003217 0.195268
-0.015634 0.025695 0.199974
-0.010242 0.012658 0.202254
-0.017838 0.023405 0.203920
-0.023174 0.046289 0.189442
-0.015014 0.053427 0.176483
-0.015865 0.036331 0.190073
-0.000168 -0.115412 0.102557
-0.009019 -0.102491 0.107878
-0.013854 -0.134106 0.095355
0.318575 0.220303 -0.178047
0.326897 0.204829 -0.212128
0.127668 -0.056201 0.187470
0.156848 -0.013657 0.169264
-0.116502 -0.253050 -0.078527
-0.134227 -0.244863 -0.093873
-0.121470 -0.247875 -0.097774
0.062519 -0.177319 0.056493
0.067322 -0.187945 0.053745
0.065885 -0.200393 0.033099
0.275854 0.101805 -0.446358
0.235297 0.039758 -0.436969
0.312364 0.144581 -0.413804
-0.011167 0.066986 0.167015
-0.007453 0.059248 0.169000
0.012508 0.024511 0.164158
0.017676 0.029470 0.157903
0.012139 0.043191 0.164869
0.061804 -0.225007 -0.010987
0.063928 -0.218381 0.006721
0.059314 -0.240020 -0.021479
0.312962 0.231946 -0.151379
0.304797 0.212223 -0.154488
0.268535 0.167763 -0.143830
0.026103 0.003084 -0.364193
0.018780 -0.039041 -0.307207
0.008812 -0.161170 0.153847
0.016913 -0.160698 0.170442
0.004935 -0.151797 0.171842
0.017234 -0.168495 -0.057128
0.025577 -0.186261 -0.018372
0.014407 -0.176405 0.001028
0.097915 0.035636 0.242613
0.067328 0.018405 0.263614
0.076194 -0.003642 0.253789
-0.133640 -0.148417 -0.140901
-0.133413 -0.099997 -0.141654
-0.120273 -0.119754 -0.143721
-0.126215 -0.058432 -0.140313
-0.115645 -0.076324 -0.142769
-0.008388 0.045737 0.175072
0.343091 0.195860 -0.296230
0.339002 0.216426 -0.249877
0.295407 0.193095 -0.159618
0.282548 0.181512 -0.152117
0.265309 0.166595 -0.122550
0.272954 0.190368 -0.094208
0.259499 0.145248 -0.097698
0.252270 0.137796 -0.040909
0.246967 0.107293 -0.045250
0.254762 0.127455 -0.078649
0.035912 -0.148382 -0.081119
0.042959 -0.157380 -0.068933
0.041169 -0.170687 -0.073786
0.099455 -0.086625 0.203682
0.035631 -0.151722 -0.154392
-0.010011 -0.003472 0.134681
-0.019619 0.022225 0.115978
-0.018035 0.016136 0.146786
-0.005406 -0.007857 0.179107
-0.001204 -0.012305 0.191277
0.038943 -0.143197 -0.078633
0.044747 -0.126767 -0.214362
-0.007646 0.014063 0.197139
-0.008527 0.026945 0.187493
0.057036 -0.093368 -0.277907
0.154554 -0.028214 -0.395679
0.336332 0.186312 -0.252185
0.255315 0.143964 -0.148384
0.186038 0.007403 0.121904
0.083343 -0.112940 0.202761
0.115546 -0.084458 0.184552
0.043701 -0.148703 -0.078537
0.050797 -0.166543 -0.051641
0.044485 -0.146575 -0.076670
-0.131343 -0.230926 -0.114818
-0.117818 -0.240218 -0.109973
-0.129005 -0.182912 -0.136199
0.048411 -0.141002 0.147690
0.051443 -0.155261 0.130987
0.048786 -0.152732 0.131275
0.009222 -0.092378 0.111487
0.013236 -0.112260 0.104244
-0.004245 -0.001613 0.199715
-0.001969 0.001228 0.197507
0.050330 -0.159520 0.100025
0.050421 -0.160302 0.084587
0.053052 -0.174897 0.075336
-0.007901 -0.005617 0.162633
0.043021 -0.103399 0.139945
0.048538 -0.100239 0.141345
-0.011866 0.076415 0.166273
-0.006508 0.067167 0.175441
-0.010240 0.075846 0.164496
0.006805 -0.167909 0.108730
0.030845 -0.168820 -0.103535
-0.004578 0.028094 0.181672
0.000634 0.043687 0.179741
-0.005959 0.038197 0.185456
0.088020 -0.083896 -0.313084
0.198422 -0.011468 -0.406081
0.331545 0.170272 -0.373582
0.330661 0.137716 -0.369971
0.321175 0.175884 -0.219668
0.310219 0.193170 -0.185795
0.003294 -0.136820 0.095141
0.046563 -0.126735 0.115187
0.255505 0.140696 -0.132476
0.056369 -0.155542 0.081841
0.062722 -0.165256 0.077656
0.042410 -0.150791 0.192869
0.062060 -0.146871 0.183652
0.078540 -0.138253 0.173497
0.081022 -0.131048 0.186408
0.013631 -0.178711 0.047275
0.076899 -0.121438 -0.254247
0.060854 -0.219513 -0.017332
0.056414 -0.237324 -0.039358
0.129778 -0.073061 -0.341491
0.112324 -0.110731 -0.287219
-0.341015 0.397295 -0.062081
-0.343960 0.389887 -0.066773
-0.355632 0.374267 -0.083325
-0.109681 -0.136557 -0.142531
-0.122415 -0.153335 -0.141582
0.280103 0.052712 -0.407770
0.242574 0.000367 -0.393092
0.338999 0.134464 -0.326722
0.340527 0.168932 -0.336940
-0.078703 -0.054814 0.164025
-0.085148 -0.050375 0.173376
-0.089509 -0.072325 0.153362
0.255943 0.136255 -0.118100
0.233375 0.114190 0.027485
0.222491 0.078532 0.051650
0.238116 0.100706 -0.002298
0.060459 -0.136604 0.200321
0.043814 -0.196798 -0.073238
0.048488 -0.186623 -0.059920
0.053242 -0.163241 -0.052985
0.046405 -0.154030 -0.066065
0.016139 -0.179603 0.086099
0.311966 0.103325 -0.397267
0.270071 0.156206 -0.165692
0.253481 0.124071 -0.106295
0.247552 0.102463 -0.082350
0.138966 -0.061525 0.164761
0.027127 -0.158066 0.182499
0.043502 -0.160322 0.174948
0.019514 -0.066625 0.121686
0.026243 -0.092944 0.111973
0.025698 -0.190831 0.023676
0.329119 0.102432 -0.352658
0.287427 0.170172 -0.173631
0.209497 0.043832 0.076715
0.207377 0.066336 0.097146
0.025832 -0.190479 0.061918
-0.254805 -0.023481 0.016636
-0.213472 -0.023364 0.000490
-0.225964 -0.012587 -0.028085
0.063597 -0.196635 0.029024
0.034726 -0.186606 -0.059073
0.053461 -0.180295 -0.121219
-0.125082 -0.216577 -0.124912
-0.111175 -0.231383 -0.117793
-0.116024 -0.203605 -0.130615
0.166690 -0.053246 -0.365972
-0.039772 0.023923 0.176769
-0.029760 0.043457 0.175079
-0.029186 0.025338 0.176653
-0.098847 -0.058220 -0.141049
-0.086450 -0.070118 -0.139116
-0.103568 -0.094291 -0.142927
0.308479 0.060751 -0.368923
0.257453 0.143353 -0.160959
0.246330 0.123368 -0.150254
0.248693 0.119161 -0.129788
0.182188 -0.016338 0.109589
0.158456 -0.034329 0.151545
0.156738 -0.051673 0.138906
-0.294864 0.527821 0.034816
-0.283861 0.539884 0.024824
-0.292039 0.522453 0.018383
-0.102134 -0.251351 -0.101827
-0.106945 -0.254547 -0.094065
0.029514 -0.188183 0.097432
0.060630 -0.153306 -0.187575
0.155773 -0.088006 -0.322318
-0.125931 0.145805 0.141675
-0.117616 0.143517 0.119935
-0.127641 0.145589 0.124812
0.331826 0.153884 -0.256081
0.236982 0.093879 -0.134604
0.243754 0.099365 -0.113149
0.039079 -0.116360 0.120185
-0.123142 0.005773 0.172252
-0.141052 0.007933 0.198743
-0.121295 0.015681 0.174342
0.199659 -0.047857 -0.362570
0.275536 0.011152 -0.369113
0.202895 0.017538 0.074723
0.214952 0.041437 0.051147
0.114841 -0.161086 0.001274
0.106822 -0.142498 0.024529
0.096830 -0.163582 0.036686
0.067053 -0.148805 0.167405
0.029801 -0.165340 0.168265
0.021925 -0.169659 0.152193
0.037217 -0.169802 0.154958
0.056209 -0.163396 0.065175
0.004513 -0.015103 0.196375
0.038676 -0.198724 0.067425
0.232819 -0.045593 -0.341627
0.333641 0.100292 -0.310321
0.335742 0.128581 -0.284136
0.233280 0.070124 -0.011338
0.227136 0.047636 -0.020114
0.238792 0.077208 -0.052571
0.059314 -0.212707 -0.024949
0.217982 0.036218 0.028518
0.134957 -0.078912 0.158136
0.106377 -0.108563 0.177737
-0.000920 0.055039 0.165704
-0.001761 0.039238 0.171033
-0.166770 0.500464 0.019150
-0.169423 0.496979 0.003997
-0.148604 0.462748 -0.021640
0.034361 -0.198513 0.036147
0.055981 -0.202773 -0.052914
0.303553 0.028855 -0.336452
0.322473 0.066040 -0.329263
0.326903 0.097249 -0.272189
0.313009 0.144945 -0.224752
0.322216 0.124874 -0.248598
-0.101774 -0.219635 -0.123299
-0.083894 -0.037054 -0.137198
-0.070780 -0.043241 -0.133603
-0.051711 0.142055 -0.120542
-0.033536 0.137257 -0.115650
-0.041903 0.104669 -0.118179
0.239369 0.105605 -0.147172
0.237843 0.106144 -0.160544
0.211318 0.012948 0.020346
-0.070230 0.218953 0.372874
-0.072548 0.203696 0.361842
-0.064968 0.221706 0.415147
0.035673 -0.257925 -0.066217
0.049582 -0.254272 -0.047105
0.042105 -0.268134 -0.043347
0.050041 -0.164223 -0.052709
0.177185 -0.036755 0.100419
0.151474 -0.069308 0.129822
0.098305 -0.123156 0.166697
0.039784 -0.200459 -0.008378
-0.028521 0.008731 0.172856
-0.018183 0.011753 0.170497
-0.030271 -0.006655 0.165508
0.189711 -0.096150 -0.297475
0.136087 -0.134009 -0.253312
-0.096833 0.112824 -0.008143
-0.095215 0.127314 0.021919
-0.095848 0.139066 -0.044687
0.024736 0.016935 0.149041
0.018722 0.032031 0.154222
0.023159 0.016451 0.150906
0.021786 -0.122936 0.101490
-0.027777 0.101628 -0.113729
-0.034325 0.078194 -0.116104
-0.073899 -0.078024 0.137887
-0.069209 -0.089242 0.126570
-0.059263 -0.066182 0.141147
-0.111908 0.000253 0.170003
-0.103393 0.004755 0.170983
-0.100764 -0.010121 0.165750
0.246312 0.123765 -0.163440
0.229899 0.054930 -0.059074
0.238669 0.080008 -0.087416
0.200405 -0.000239 0.062584
0.012625 0.039024 0.157583
0.013127 0.044637 0.159067
0.034775 -0.106414 0.108764
0.040358 -0.109785 0.130079
0.043827 -0.120204 0.129947
0.041327 -0.175659 0.138067
0.031382 -0.176269 0.139430
0.021358 -0.177826 0.121848
0.034425 -0.182776 0.122735
0.041065 -0.191987 0.100453
0.051234 -0.202153 0.069605
0.078239 -0.172216 -0.166636
0.080983 -0.193630 -0.114986
0.093642 -0.149249 -0.219616
0.269634 -0.025754 -0.321612
0.323348 0.065102 -0.292434
0.233075 0.076864 -0.114345
0.115856 -0.110501 0.140311
0.145003 -0.081509 0.121027
0.125138 -0.098242 0.151506
-0.112350 -0.045098 0.146451
-0.115632 -0.034415 0.153349
-0.105063 -0.045093 0.146145
-0.152946 0.187594 0.153651
-0.153095 0.189169 0.198431
-0.160033 0.182363 0.186970
0.048660 -0.206992 0.026173
0.233091 -0.073052 -0.293504
0.290474 0.128865 -0.206019
0.283961 0.100496 -0.208920
0.304002 0.118328 -0.224337
0.254139 0.124419 -0.176362
0.239624 0.104158 -0.171735
0.217475 0.024044 -0.025215
0.191851 -0.021667 0.058163
0.168131 -0.054257 0.096187
0.086689 -0.133858 0.159140
0.053586 -0.159633 0.158574
0.074401 -0.143866 0.151732
0.046544 -0.182402 0.122027
-0.056985 -0.015910 -0.127586
-0.055031 -0.053767 -0.127660
0.230261 0.087635 -0.164263
0.233495 0.086523 -0.172329
0.179840 -0.042039 0.059961
0.201315 -0.009266 0.014695
0.300964 0.301826 0.190746
0.296624 0.292747 0.153079
0.302448 0.306332 0.181195
0.050110 -0.166265 0.145956
-0.018773 0.121637 -0.112287
0.052005 -0.207480 -0.009008
0.066371 -0.211138 -0.009358
0.246272 0.098470 -0.181335
0.265575 0.113205 -0.191294
-0.251066 0.572993 0.040300
-0.221895 0.550266 0.019731
-0.237306 0.574232 0.042669
0.226493 0.073516 -0.135534
0.220176 0.037760 -0.069538
0.100949 -0.197393 -0.103225
0.104860 -0.187582 -0.137687
0.154552 -0.147086 -0.220970
0.108554 -0.171196 -0.180532
0.222138 -0.099995 -0.245472
0.192475 -0.134435 -0.196986
0.195924 -0.119247 -0.244352
0.313869 0.038669 -0.307404
0.310509 0.060558 -0.250551
0.304789 0.091562 -0.232457
0.258265 0.085969 -0.191509
0.231552 0.089724 -0.150024
0.222732 0.055324 -0.107649
0.229469 0.061391 -0.090277
0.141717 -0.085897 0.107848
-0.064765 0.173249 0.404151
-0.057335 0.163580 0.401998
-0.051768 0.189266 0.429416
0.054066 -0.191161 0.099805
0.261216 -0.055443 -0.264577
0.296172 0.001298 -0.297731
0.307363 0.319602 0.192358
0.306917 0.316479 0.210111
0.095033 -0.126306 0.141002
0.064395 -0.153165 0.143877
0.060137 -0.163220 0.133563
-0.158842 -0.038697 0.179595
-0.196333 -0.049465 0.205419
-0.191876 -0.042906 0.215302
0.048393 -0.173437 -0.055832
0.001988 -0.040919 0.113301
-0.003463 -0.022674 0.124133
0.006078 -0.046064 0.139758
0.051419 -0.172686 0.133076
0.308399 0.028866 -0.272621
-0.190598 -0.033903 -0.101241
-0.173876 -0.057736 -0.071589
-0.177046 -0.057015 -0.095267
0.278235 0.071534 -0.206984
0.237045 0.074753 -0.176906
0.159887 -0.065903 0.092750
0.063371 -0.207962 0.038924
0.078192 -0.206134 -0.064754
0.091879 -0.206979 -0.043278
0.210466 0.011564 -0.031790
-0.226011 0.505322 -0.018540
-0.223416 0.529161 -0.001891
-0.241716 0.540801 0.010408
0.057767 -0.177068 0.118848
0.060931 -0.199335 0.073687
-0.260608 0.557698 0.012221
-0.249216 0.513516 -0.021746
-0.274646 0.543216 0.012036
0.082387 -0.135808 0.136647
0.074990 -0.196566 0.055612
0.066006 -0.184910 0.093625
-0.095783 -0.243658 -0.109714
0.052979 -0.169741 0.065819
-0.326449 0.422182 -0.038597
-0.318295 0.442606 -0.021055
-0.325331 0.421456 -0.040819
0.048895 -0.140090 0.097859
0.042441 -0.128723 0.108489
-0.002052 0.056343 0.179426
-0.202981 -0.044645 0.072457
-0.230327 -0.051601 0.104565
-0.189631 -0.047418 0.086780
-0.078695 -0.176928 -0.129561
-0.095220 -0.159452 -0.137145
-0.075938 -0.133494 -0.133912
-0.005557 -0.019203 0.088113
0.001713 -0.045593 0.066299
-0.006884 -0.011370 0.054337
0.057472 -0.204089 -0.030432
0.053351 -0.199139 -0.048218
0.053379 -0.185642 -0.039432
0.199695 -0.008556 -0.014879
0.184875 -0.033744 0.028194
0.121640 -0.102779 0.119289
0.102907 -0.116412 0.124439
0.125096 -0.095125 0.101503
0.285104 -0.016851 -0.253572
0.292359 0.019681 -0.232662
0.285339 0.042662 -0.215396
-0.024985 0.057924 0.170540
-0.018910 0.044219 0.174060
0.224176 0.068243 -0.163135
0.216491 0.050924 -0.122934
0.220582 0.066015 -0.147491
-0.345160 0.388376 -0.073714
-0.350831 0.383385 -0.078633
-0.363539 0.366016 -0.100302
0.049971 -0.149451 0.081428
-0.289828 0.044256 -0.175634
-0.251655 0.036527 -0.170204
-0.264291 0.041299 -0.186138
0.213587 0.034717 -0.092634
0.337665 0.202779 -0.344426
0.072707 -0.147631 0.130816
0.068533 -0.160326 0.120185
0.051848 -0.152642 0.055884
0.051532 -0.160655 0.043922
0.056298 -0.173197 0.033838
0.031938 -0.003586 0.146923
0.024663 0.013874 0.149824
0.030365 0.002157 0.144695
0.165613 -0.153072 -0.191606
0.190659 -0.136357 -0.157978
0.225860 -0.100338 -0.210145
-0.148316 -0.150709 -0.069074
-0.161940 -0.153013 -0.081683
-0.158965 -0.144415 -0.077612
-0.047638 0.035086 0.174605
-0.038417 0.048152 0.172523
0.208102 0.013324 -0.054202
-0.179609 -0.070850 -0.112135
-0.168479 -0.081205 -0.091723
-0.173595 -0.085579 -0.100995
-0.263321 -0.069467 -0.115688
-0.262212 -0.062615 -0.103145
-0.276914 -0.044262 -0.117559
-0.159550 -0.136032 -0.077265
-0.146930 -0.142457 -0.065213
-0.225472 -0.095061 -0.140767
-0.239806 -0.071045 -0.158718
-0.220252 -0.087874 -0.144998
-0.172526 -0.103675 -0.096197
-0.179926 -0.089358 -0.109481
-0.166141 -0.099365 -0.087542
-0.242341 -0.061180 -0.082426
-0.228055 -0.062153 -0.078603
-0.243945 -0.029593 -0.073181
-0.026235 0.069605 -0.113281
-0.021078 0.050042 -0.111525
-0.034975 0.043751 -0.116981
-0.225104 0.038387 -0.062298
-0.230436 0.090853 -0.058021
-0.239928 0.066163 -0.056488
-0.221525 -0.129067 -0.113412
-0.221538 -0.133272 -0.106245
-0.237037 -0.112047 -0.114286
0.003990 -0.172557 0.030835
-0.008690 -0.182391 0.018804
-0.006204 -0.166712 0.029780
-0.263864 0.094597 -0.054039
-0.267066 0.062272 -0.059892
-0.251391 0.063652 -0.055983
-0.252858 -0.087355 -0.125100
-0.248920 -0.093110 -0.110087
-0.051983 0.120052 0.147536
-0.052458 0.137882 0.159019
-0.031220 0.128137 0.148485
0.012020 -0.027261 0.190093
0.010582 -0.031567 0.193457
-0.279052 0.000481 -0.087402
-0.267116 -0.037192 -0.092500
-0.258970 -0.025974 -0.079531
-0.296449 -0.008223 -0.123669
-0.281171 -0.024117 -0.105206
-0.296241 0.012497 -0.105259
0.056276 -0.183385 0.024968
0.054692 -0.179045 0.053022
0.055464 -0.174045 0.046429
0.207586 0.030146 -0.105599
0.202743 0.012480 -0.074391
-0.009973 -0.137905 0.166827
-0.205919 -0.148431 -0.098023
-0.199694 -0.145536 -0.094987
-0.215915 -0.130277 -0.095238
0.042149 -0.103949 0.077832
0.037192 -0.097323 0.093031
0.044539 -0.094407 0.084781
0.049320 -0.109904 0.061351
0.040397 -0.116040 0.069512
0.036139 -0.106836 0.085482
0.065833 -0.094875 0.053055
0.078170 -0.098156 0.031158
0.062875 -0.105065 0.047091
0.048840 -0.119534 0.053179
0.044314 -0.130372 0.051765
0.053746 -0.112811 -0.096949
0.046655 -0.091597 -0.111787
0.044379 -0.109730 -0.097535
0.092671 -0.089843 0.015214
0.093657 -0.099062 0.006977
0.047281 -0.124087 -0.087064
0.094428 -0.108939 -0.002051
0.076326 -0.109695 0.023661
0.076847 -0.147702 -0.024816
0.062561 -0.157272 -0.015438
0.063400 -0.148934 0.002042
-0.030849 0.062844 -0.352419
-0.049783 0.064541 -0.317181
-0.040625 0.086988 -0.365866
0.052744 -0.150159 0.020243
0.049815 -0.155486 0.022384
0.045633 -0.144132 0.040032
0.010515 -0.039772 -0.118951
0.004089 -0.026427 -0.116107
0.007898 -0.059684 -0.117731
0.018076 -0.053391 -0.119592
0.024918 -0.052970 -0.122985
0.018537 -0.029555 -0.127161
0.039510 -0.134123 0.061124
0.045662 -0.152291 0.039429
0.042364 -0.142922 0.057906
-0.142172 0.458666 -0.092187
-0.131730 0.457863 -0.100230
-0.127552 0.441802 -0.103431
0.001769 0.008095 -0.112942
-0.001372 0.045087 -0.108787
-0.005422 0.014749 -0.109094
0.053231 -0.140948 0.028181
0.050643 -0.036669 0.147655
0.052127 -0.043104 0.144876
0.048928 -0.043366 0.147219
0.041833 -0.061103 0.137929
0.041953 -0.062785 0.138209
0.043847 -0.057036 0.141855
0.055874 -0.055021 0.126665
0.065218 -0.047659 0.125557
0.064350 -0.053049 0.116330
0.044952 -0.061931 0.138071
0.042077 -0.070620 0.132453
0.036701 -0.081779 0.113815
0.042944 -0.079096 0.107357
0.039176 -0.087803 0.101251
0.034206 -0.110303 0.094448
0.033514 -0.103220 0.095363
0.034954 -0.116227 0.081726
0.039888 -0.121982 0.085667
0.037096 -0.105385 0.102150
0.013225 0.062370 -0.162975
0.015624 0.078432 -0.183525
0.008533 0.095856 -0.170275
-0.040542 -0.141871 -0.119847
-0.027733 -0.113293 -0.120340
-0.037685 -0.094132 -0.120009
0.195731 -0.007910 -0.242992
0.218961 -0.000642 -0.236762
0.219965 0.027094 -0.261090
-0.109486 0.080472 0.166244
-0.128272 0.073391 0.196457
-0.121733 0.088716 0.180863
0.038575 -0.123975 0.067407
0.164132 -0.061523 -0.191419
0.152003 -0.084385 -0.160652
0.181262 -0.059583 -0.187418
0.242951 0.035241 -0.245477
0.237051 0.006601 -0.220367
0.122358 -0.060368 -0.019061
0.121042 -0.071797 -0.020064
0.104143 -0.076771 0.004855