# vtk DataFile Version 3.0
3D Unstructured Surface
ASCII
DATASET UNSTRUCTURED_GRID
POINTS 8455 float
19.873246 32.274845 -27.477407
19.748494 32.369325 -27.555638
19.866470 32.232930 -27.647349
19.742019 32.341804 -27.754350
19.442698 30.833058 -29.959504
19.588988 30.954172 -30.026106
19.579832 30.758628 -29.978380
19.595993 32.610206 -28.294266
19.613901 32.527350 -28.135091
19.492889 32.691995 -28.126301
19.682066 32.565004 -28.428434
19.704531 32.465986 -28.304256
19.610288 32.917151 -28.720677
19.744809 32.757974 -28.742314
19.598605 32.804584 -28.587416
19.730407 32.905633 -28.844847
19.622199 33.011925 -28.817228
19.708834 33.057513 -28.927092
19.822346 33.104254 -29.025472
19.677227 33.210657 -28.988572
19.838736 33.257524 -29.089488
19.828142 33.400343 -29.122220
19.983358 33.341741 -29.148737
19.880796 33.542172 -29.156258
20.063018 33.533342 -29.173479
20.190323 33.365049 -29.178389
20.252694 33.535136 -29.179128
20.130799 33.691377 -29.174241
20.297859 33.714538 -29.170051
20.450412 33.773865 -29.149344
20.300108 33.874884 -29.159098
20.421674 33.930265 -29.141826
20.607683 33.908299 -29.105964
19.150720 31.320963 -25.444422
19.300482 31.313023 -25.628183
19.322391 31.473324 -25.481816
20.779393 34.286894 -28.961474
20.870542 34.123973 -28.960904
20.664568 34.128907 -29.050827
21.007360 34.396578 -28.760964
21.147909 34.359315 -28.624925
21.110687 34.226843 -28.741399
21.518644 34.083061 -27.749345
21.496700 34.124355 -27.993006
21.430870 34.297497 -27.841344
21.529353 33.787631 -27.219905
21.591267 33.725384 -27.388861
21.533918 33.922193 -27.404609
20.434643 31.059968 -28.662889
20.585381 30.924172 -28.555904
20.629360 31.007554 -28.729524
21.467318 33.850957 -27.028436
21.480786 33.989035 -27.226437
21.429330 34.045488 -27.027887
20.822871 32.844796 -26.269061
21.011321 32.896926 -26.314172
20.871921 33.010061 -26.207208
20.439575 32.312789 -26.780665
20.516207 32.412704 -26.627198
20.337641 32.431050 -26.669563
20.315004 32.259459 -26.936901
20.276654 32.356631 -26.800968
20.107381 32.360153 -26.918467
20.202894 32.226186 -27.085627
19.804090 32.262573 -27.981650
19.659721 32.437278 -27.975864
21.391055 34.339567 -28.062867
21.441213 34.166142 -28.207556
20.676390 32.539310 -26.466110
20.730724 32.683911 -26.351993
20.562785 32.615502 -26.418462
18.974534 30.519222 -26.451703
18.742528 30.483736 -26.409711
18.881934 30.422203 -26.576490
20.574016 32.501369 -26.518704
16.919011 30.704419 -28.924274
17.035982 30.871985 -29.013427
17.129108 30.685136 -28.962234
19.745819 32.363262 -28.167890
19.732584 32.628826 -28.599923
20.346244 30.366629 -28.735531
20.308647 30.383184 -28.933833
20.522275 30.477630 -28.849256
19.993808 33.149588 -29.113112
19.765454 36.677303 -28.848790
19.548173 36.753354 -28.874730
19.668010 36.853662 -28.773180
20.370361 36.483311 -28.425362
20.453271 36.295494 -28.472144
20.340346 36.355517 -28.590835
20.448566 36.136223 -28.610080
20.294812 36.198205 -28.758204
18.726501 31.812988 -27.658371
18.639139 31.866239 -27.819856
18.544054 31.951956 -27.649639
18.929930 31.805312 -27.080438
18.710262 31.940695 -27.051532
18.846773 31.906236 -26.870005
19.081312 31.739531 -27.035262
19.031580 31.805122 -26.887112
19.175622 31.719659 -26.938045
19.408029 31.758299 -26.376978
19.371431 31.709750 -26.630278
19.242189 31.807541 -26.522955
19.419774 31.817856 -25.985780
19.521673 31.633903 -25.909803
19.506220 31.718295 -26.163271
18.540305 30.182092 -26.859514
18.480912 30.265926 -26.676065
18.359475 30.137253 -26.868400
21.257796 34.193986 -28.584226
21.227087 34.050426 -28.708288
20.843441 32.514143 -26.473726
20.935734 32.703931 -26.371100
17.224560 30.147727 -28.701392
17.059034 30.263483 -28.732832
17.276404 30.330656 -28.836488
19.987120 30.330808 -29.465855
19.832317 30.220710 -29.300837
19.770040 30.256736 -29.505762
20.469440 33.577275 -29.169828
20.382918 33.373792 -29.187811
20.618240 33.711098 -29.130473
19.450147 31.508693 -25.701509
19.535844 31.455692 -25.875710
19.100320 30.822342 -26.057065
19.312968 30.807932 -26.184885
19.288615 30.946659 -26.005144
19.613621 30.457621 -29.839596
19.639151 30.313027 -29.692188
19.443427 30.405271 -29.786157
21.265112 34.312050 -28.483656
21.364049 34.187395 -28.401967
21.619128 33.880160 -27.919740
19.505379 33.352732 -28.930469
19.552232 33.165056 -28.855874
19.989353 32.164994 -27.514708
20.112118 32.126644 -27.384397
19.970955 32.240634 -27.353961
19.822549 32.428072 -28.497331
19.937574 32.270040 -28.461065
19.846211 32.299464 -28.329385
20.433656 33.117155 -26.052761
20.273713 33.096367 -26.075888
20.353848 32.970455 -26.160429
17.158984 31.021232 -29.092284
17.044081 31.237130 -29.142573
17.269580 31.173146 -29.167694
17.022371 31.419994 -29.200247
17.203164 31.361200 -29.213977
19.616707 31.525197 -26.058304
20.968162 33.929187 -28.961796
21.054262 34.072761 -28.857970
21.456567 34.060024 -28.332723
21.540491 33.990609 -28.168331
21.604195 33.837950 -27.614075
21.515057 34.045408 -27.547583
21.580911 33.587862 -27.231468
21.456231 33.491059 -26.833830
21.502455 33.252168 -26.876845
21.555565 33.416133 -27.062280
19.592755 31.729736 -29.990255
19.756513 31.704989 -30.044649
19.615684 31.498077 -30.048275
20.701502 32.414429 -26.575813
19.876319 32.616393 -28.759294
18.833165 31.768067 -27.491146
18.649089 31.898619 -27.439673
18.774438 31.851243 -27.257392
19.084718 31.694262 -27.199646
19.243578 31.636791 -27.113562
19.708965 31.873006 -29.960667
19.865108 32.769031 -28.866077
19.523807 31.646910 -26.527485
19.610216 31.605674 -26.307921
19.854515 32.938173 -28.963845
20.157005 33.184287 -29.158890
21.159758 33.900871 -28.838920
21.705830 33.660100 -27.767309
21.147135 32.732010 -26.446460
20.642203 32.290404 -26.733188
20.846640 32.347364 -26.613824
19.869630 32.079467 -29.603913
20.020564 31.918181 -29.613272
19.855634 32.002007 -29.819212
17.220358 30.510741 -28.910438
17.396054 30.474721 -28.945897
17.280444 30.856672 -29.063779
20.049696 31.136491 -28.261748
20.078706 31.140873 -28.476276
19.908213 31.202769 -28.418297
18.691569 30.253293 -26.792832
18.684689 30.158020 -26.967666
19.337694 31.653706 -26.884321
19.544159 31.584645 -26.719018
20.518070 31.127805 -28.866709
20.613978 31.152781 -29.057048
20.385600 31.266288 -29.038573
18.965216 31.729366 -27.311311
20.648110 30.596177 -28.649681
20.471530 30.427981 -28.609167
19.092224 31.497031 -25.133161
19.012404 31.356639 -25.257866
19.197573 31.465714 -25.301169
19.889973 32.177188 -27.815493
19.896747 32.484785 -28.663435
18.771427 31.009501 -25.594350
18.938349 31.079084 -25.603061
18.776432 31.110526 -25.443553
19.979434 32.984300 -29.051489
20.317014 33.208297 -29.183250
20.744481 33.802989 -29.086341
20.804703 33.650462 -29.097856
21.327343 33.869516 -28.698354
21.373316 34.020025 -28.539359
18.522634 30.078955 -27.052362
20.445537 30.489372 -29.115636
21.676685 33.593648 -27.537360
20.189123 30.408632 -29.366033
20.042571 30.314169 -29.246123
20.386144 32.129708 -27.090541
20.582428 32.042714 -27.064945
20.747023 31.982521 -27.033080
20.698928 32.119549 -26.910711
19.881976 32.200115 -28.166240
20.011190 32.811149 -28.988892
19.689526 30.615794 -29.932291
19.469079 30.630616 -29.909568
20.143359 33.013570 -29.121557
20.152707 32.853145 -29.073479
14.291288 31.822523 -29.070548
14.402838 31.860787 -28.902834
14.301075 31.688039 -28.881074
17.450815 31.120122 -29.196506
17.322903 31.019356 -29.130077
20.600957 33.358026 -29.180028
20.513953 33.192227 -29.196622
20.987322 33.611208 -29.037316
20.887264 33.785817 -29.037876
17.749157 30.824348 -25.266937
17.643316 30.897450 -25.099479
17.588263 30.754176 -25.305545
21.645638 33.527246 -27.374173
21.304845 33.316121 -26.502529
21.283622 33.093242 -26.485728
21.404746 33.213792 -26.666267
20.515225 32.189657 -26.917917
19.515494 31.227375 -30.023271
19.711853 31.317249 -30.088289
20.047818 31.849858 -29.885611
19.878812 31.849449 -29.973045
19.954993 32.100485 -28.012666
20.703823 33.526137 -29.143864
21.646646 33.794417 -28.155604
21.632659 33.403533 -27.251731
21.607046 33.214158 -27.095334
20.988928 32.405273 -26.561122
20.239371 32.111959 -27.252225
20.429600 31.984790 -27.269456
18.873735 30.329320 -26.735153
18.878316 30.201835 -26.970979
19.982015 32.155081 -28.342328
20.900313 33.478052 -29.099417
21.542128 33.891818 -28.347550
21.262889 32.895801 -26.489779
21.146704 33.054549 -26.354533
20.027937 32.056108 -28.201827
14.831046 30.596731 -26.045490
14.762178 30.398983 -25.822955
14.648967 30.354963 -25.991266
19.843208 30.341597 -29.649700
19.980882 32.334709 -28.604312
20.057718 32.449348 -28.786445
17.343990 30.657667 -29.007193
17.521992 30.591958 -29.035802
17.474581 30.771630 -29.087551
20.265800 33.065929 -29.165082
17.876120 31.234926 -24.061214
18.110580 31.365550 -24.079465
18.057119 31.190397 -24.210929
17.352384 31.459243 -29.278065
17.540768 31.434876 -29.318218
17.408125 31.307391 -29.244195
20.805249 33.327905 -29.153192
21.716605 33.678388 -27.972116
21.764223 33.458118 -27.680802
21.711139 33.383169 -27.441873
21.243613 32.551350 -26.574786
21.053561 32.535976 -26.493066
21.138847 32.385065 -26.612848
15.007753 33.171963 -29.452096
15.174370 33.308215 -29.281164
15.075735 33.123489 -29.241816
17.579186 30.422907 -28.984422
17.467373 30.324180 -28.896078
20.126104 31.941028 -28.048255
20.011584 32.636981 -28.887183
20.301870 32.920085 -29.144997
19.115437 33.844083 -23.725325
19.038886 33.630330 -23.693582
18.959104 33.809573 -23.599361
21.250614 33.710544 -28.843417
21.793029 33.158494 -27.495734
21.704960 33.195202 -27.306079
20.683622 30.619096 -29.077442
16.421986 31.230098 -23.644741
16.505041 31.393614 -23.748443
16.551114 31.340563 -23.536386
20.413948 33.045074 -29.188860
20.699063 33.168757 -29.191047
21.324763 32.719599 -26.582942
21.357483 32.851293 -26.596915
21.159109 31.686023 -28.864470
21.312356 31.526704 -28.801205
21.112973 31.555744 -28.704942
20.688690 31.887576 -27.184776
20.269733 32.012997 -27.396285
20.148633 32.019836 -27.565686
20.360059 31.878546 -27.532863
[...]
POINT_DATA 8455
VECTORS Displacement float
-0.113246 -0.194445 0.172507
-0.125494 -0.191925 0.153138
-0.107770 -0.198930 0.148949
-0.119019 -0.196704 0.122050
0.006702 -0.174158 -0.037496
0.014112 -0.166872 -0.041394
0.018468 -0.171728 -0.028520
-0.115893 -0.184006 -0.017034
-0.120601 -0.190350 0.026991
-0.136089 -0.175495 -0.003699
-0.098366 -0.189204 -0.031166
-0.101331 -0.196286 0.008356
-0.086588 -0.146251 -0.152823
-0.069309 -0.169174 -0.121386
-0.098905 -0.162684 -0.107884
-0.060007 -0.147433 -0.167753
-0.075099 -0.130425 -0.186672
-0.050734 -0.121413 -0.211008
-0.018646 -0.110354 -0.234428
-0.042627 -0.092557 -0.249528
0.002064 -0.078024 -0.273112
0.015358 -0.046543 -0.302580
0.050142 -0.051941 -0.297363
0.045404 -0.010272 -0.327942
0.094382 -0.000242 -0.324721
0.110477 -0.031849 -0.299311
0.146606 0.014964 -0.309472
0.130001 0.043723 -0.328459
0.175341 0.061762 -0.302349
0.214288 0.086035 -0.265356
0.188592 0.099116 -0.289802
0.217726 0.118335 -0.252874
0.248117 0.122401 -0.206536
-0.092320 0.055437 0.140522
-0.097882 0.048877 0.142083
-0.105791 0.052876 0.139616
0.267207 0.185806 -0.089526
0.272658 0.161527 -0.098496
0.259632 0.163693 -0.151273
0.265540 0.187722 -0.015036
0.260591 0.175985 0.006325
0.267813 0.165757 -0.026201
0.228356 0.136039 0.045245
0.234300 0.139745 0.034206
0.231730 0.154203 0.066944
0.215247 0.114069 0.052805
0.217633 0.107916 0.030661
0.220482 0.124107 0.051609
0.007357 -0.140068 0.090689
0.004819 -0.121272 0.100304
0.010240 -0.129454 0.089324
0.209182 0.119643 0.078136
0.216214 0.129965 0.075137
0.208970 0.134312 0.099687
0.063829 -0.041396 0.241761
0.102579 -0.016226 0.204972
0.085979 -0.006361 0.232208
-0.047275 -0.163089 0.245265
-0.029407 -0.143804 0.254598
-0.060741 -0.152850 0.261363
-0.067804 -0.177459 0.235601
-0.072754 -0.166031 0.250468
-0.096681 -0.172753 0.241667
-0.082694 -0.186186 0.222427
-0.101790 -0.203173 0.092450
-0.121021 -0.194978 0.070564
0.237745 0.159533 0.056867
0.241587 0.145058 0.025356
0.009510 -0.109610 0.252110
0.031876 -0.079411 0.252593
-0.007185 -0.107602 0.268362
-0.061734 -0.011822 0.120703
-0.071828 -0.018836 0.114411
-0.060734 -0.024703 0.112590
-0.013116 -0.125369 0.259004
-0.206311 -0.105319 -0.081226
-0.205182 -0.090185 -0.094273
-0.196208 -0.110536 -0.081466
-0.101719 -0.201362 0.048190
-0.081984 -0.184226 -0.072377
0.014156 -0.091729 0.098131
0.018453 -0.101284 0.089733
0.011925 -0.090130 0.101056
0.030692 -0.094788 -0.257288
0.173246 0.325497 0.044590
0.155127 0.338046 0.014730
0.160890 0.321038 0.044580
0.201239 0.287089 0.153262
0.206429 0.284206 0.152244
0.203754 0.292583 0.129535
0.210334 0.287577 0.130380
0.206688 0.300895 0.098804
-0.145901 -0.031988 0.102071
-0.147739 -0.025939 0.076256
-0.155754 -0.009556 0.078539
-0.145630 -0.026412 0.165438
-0.157462 -0.008295 0.144832
-0.153273 -0.011336 0.168605
-0.138012 -0.033731 0.178162
-0.143880 -0.023622 0.181212
-0.135022 -0.033759 0.185945
-0.135429 -0.012399 0.190578
-0.132231 -0.025450 0.192778
-0.140489 -0.015041 0.194155
-0.137274 0.010844 0.179380
-0.125373 0.019997 0.163603
-0.131920 -0.000595 0.180271
-0.068605 -0.058592 0.089814
-0.077812 -0.049026 0.092265
-0.078775 -0.065453 0.082900
0.259704 0.155614 -0.004874
0.267213 0.142574 -0.036812
0.038959 -0.096543 0.229326
0.072866 -0.056431 0.220300
-0.158260 -0.131727 -0.027508
-0.175534 -0.129383 -0.041468
-0.170004 -0.132556 -0.047412
0.029580 -0.135108 0.043555
0.027383 -0.140210 0.043637
0.027560 -0.148736 0.029462
0.203360 0.042525 -0.274272
0.162882 -0.013192 -0.283889
0.240960 0.082602 -0.230827
-0.114247 0.039407 0.148309
-0.113244 0.028708 0.152310
-0.073320 0.020958 0.138865
-0.070368 0.017668 0.134785
-0.078515 0.029241 0.140144
0.023679 -0.167521 -0.002504
0.024749 -0.160827 0.012188
0.015773 -0.174771 -0.004543
0.253888 0.165150 0.019356
0.250051 0.150105 0.013167
0.226572 0.117240 0.009640
-0.067279 -0.068132 -0.269731
-0.076332 -0.103956 -0.224126
-0.098153 -0.198594 0.171408
-0.088018 -0.196944 0.188197
-0.105655 -0.193134 0.191361
-0.076349 -0.201772 -0.017569
-0.062874 -0.211440 0.013365
-0.081211 -0.207164 0.030585
0.000444 -0.018355 0.298561
-0.034913 -0.035867 0.313088
-0.025648 -0.056555 0.302929
-0.200684 -0.074732 -0.103716
-0.204181 -0.041630 -0.111827
-0.193880 -0.057246 -0.109606
-0.201371 -0.012994 -0.116353
-0.192764 -0.027500 -0.114423
-0.118807 0.010903 0.162404
0.276638 0.132113 -0.111204
0.274238 0.150439 -0.066430
0.245033 0.135676 0.004423
0.236409 0.127391 0.007531
0.222005 0.115650 0.024875
0.224243 0.133492 0.055383
0.212789 0.097038 0.032168
0.197469 0.088041 0.071630
0.192545 0.063132 0.056145
0.204935 0.081467 0.038080
-0.016655 -0.128236 -0.061645
-0.000813 -0.135989 -0.057451
-0.004784 -0.139977 -0.059925
0.005198 -0.126729 0.240613
-0.051219 -0.187393 -0.095306
-0.142765 -0.036667 0.128746
-0.154389 -0.016319 0.110173
-0.150938 -0.021943 0.139192
-0.133618 -0.042262 0.170646
-0.125978 -0.046591 0.182062
-0.011865 -0.129806 -0.059833
-0.041008 -0.167831 -0.142423
-0.126407 -0.024010 0.187685
-0.123816 -0.010574 0.177521
-0.027615 -0.140673 -0.191755
0.079395 -0.077387 -0.269710
0.274642 0.126429 -0.075380
0.217370 0.099000 -0.004091
0.110665 -0.032510 0.176360
-0.012603 -0.150704 0.234288
0.026560 -0.121064 0.219124
-0.012630 -0.147267 -0.055187
0.004236 -0.156681 -0.039828
-0.005834 -0.139507 -0.056888
-0.184158 -0.124641 -0.066162
-0.173554 -0.131321 -0.061603
-0.193844 -0.097672 -0.094321
-0.019396 -0.138991 0.119548
-0.008606 -0.147073 0.103076
-0.020913 -0.146169 0.107697
-0.062369 -0.048193 0.097432
-0.056489 -0.060620 0.092266
-0.127294 -0.038206 0.190121
-0.120259 -0.035945 0.187518
0.014530 -0.144505 0.075309
0.021022 -0.142781 0.064148
0.018100 -0.157288 0.053573
-0.138416 -0.039666 0.155011
0.006290 -0.088977 0.106481
0.008870 -0.083781 0.105567
-0.092324 0.064169 0.136261
-0.087304 0.059161 0.141566
-0.098073 0.060086 0.136269
-0.097873 -0.202988 0.126793
-0.056447 -0.199885 -0.054965
-0.082227 0.033999 0.145950
-0.082249 0.041816 0.145961
-0.082132 0.041874 0.147953
0.008266 -0.129300 -0.215211
0.126086 -0.058897 -0.270250
0.261519 0.107011 -0.186759
0.262097 0.080038 -0.191744
0.265057 0.119884 -0.050746
0.256084 0.134675 -0.017541
-0.063034 -0.071355 0.085162
0.018363 -0.101672 0.088336
0.215115 0.095452 0.005260
0.027377 -0.121232 0.061633
0.027429 -0.126969 0.058823
-0.058244 -0.186308 0.214941
-0.032028 -0.178414 0.203745
-0.010223 -0.166821 0.191080
-0.011328 -0.163649 0.210711
-0.083576 -0.208315 0.069740
-0.002190 -0.159449 -0.170208
0.026074 -0.166794 -0.012309
0.013921 -0.176616 -0.022132
0.054841 -0.115770 -0.231843
0.038093 -0.146845 -0.191921
-0.444488 0.416677 -0.081752
-0.448438 0.410413 -0.085866
-0.455275 0.394161 -0.093526
-0.185515 -0.071022 -0.105294
-0.192903 -0.079656 -0.103223
0.210543 0.003074 -0.250272
0.173347 -0.043727 -0.251778
0.273678 0.080392 -0.154084
0.272836 0.108083 -0.153824
-0.120057 -0.013948 0.126837
-0.120716 -0.012550 0.138879
-0.127263 -0.024976 0.119045
0.212862 0.090954 0.013073
0.169955 0.064979 0.119429
0.156178 0.033458 0.130028
0.178454 0.055308 0.089467
-0.038225 -0.172957 0.226517
-0.002294 -0.154175 -0.056229
0.010647 -0.150249 -0.053911
0.014982 -0.148558 -0.044889
0.003388 -0.139049 -0.053955
-0.080893 -0.207685 0.102966
0.242577 0.048663 -0.226136
0.229154 0.108383 -0.011896
0.208241 0.080367 0.015631
0.198554 0.061442 0.024134
0.055372 -0.097273 0.201822
-0.075771 -0.193659 0.201625
-0.052000 -0.190690 0.190856
-0.055335 -0.036720 0.105953
-0.046016 -0.053935 0.098179
-0.062615 -0.213381 0.047428
0.262787 0.051748 -0.185883
0.241072 0.118182 -0.013850
0.140411 0.002499 0.142679
0.134896 0.019851 0.169133
-0.063037 -0.212008 0.079027
-0.283846 0.002169 0.073790
-0.232778 -0.001883 0.049055
-0.245367 0.006937 0.023466
0.029492 -0.147997 0.024500
-0.049282 -0.210709 -0.019688
-0.024918 -0.204448 -0.068055
-0.185290 -0.118267 -0.079007
-0.173192 -0.129258 -0.071098
-0.182481 -0.112830 -0.086549
0.094400 -0.095729 -0.245518
-0.052520 0.028274 0.156414
-0.045880 0.042550 0.156365
-0.048719 0.030903 0.148829
-0.181084 -0.018043 -0.112735
-0.171468 -0.030076 -0.107082
-0.183325 -0.042891 -0.110305
0.241751 0.014495 -0.212008
0.220095 0.098912 -0.013384
0.209977 0.082882 -0.015898
0.208161 0.078031 -0.003927
0.109187 -0.050750 0.154986
0.077939 -0.071776 0.195066
0.078653 -0.084365 0.174848
-0.422053 0.532737 -0.002104
-0.412770 0.537185 -0.006836
-0.419535 0.526711 -0.018884
-0.160186 -0.140107 -0.053678
-0.159673 -0.138380 -0.044922
-0.058104 -0.208328 0.108355
-0.019084 -0.184981 -0.119417
0.085230 -0.123885 -0.213803
-0.145837 0.156117 0.156825
-0.132686 0.147770 0.148982
-0.139704 0.160327 0.142961
0.272886 0.100656 -0.087883
0.198271 0.058506 -0.020266
0.200340 0.061098 -0.001421
0.013278 -0.095396 0.095242
-0.130586 0.018002 0.175941
-0.149441 0.018886 0.211043
-0.126914 0.023637 0.182086
0.130352 -0.087174 -0.237940
0.208937 -0.029957 -0.225853
0.134737 -0.018999 0.131442
0.149517 0.002707 0.117215
0.071991 -0.154923 0.022870
0.064844 -0.135304 0.037305
0.052527 -0.157144 0.046442
-0.020790 -0.175076 0.180076
-0.068833 -0.196797 0.183485
-0.077433 -0.200536 0.166086
-0.054259 -0.195446 0.164663
0.029943 -0.126903 0.048923
-0.112378 -0.049987 0.185436
-0.040685 -0.212864 0.079995
0.167171 -0.080114 -0.216492
0.270915 0.053444 -0.149751
0.274835 0.078589 -0.119160
0.175195 0.030733 0.070705
0.170966 0.013363 0.053836
0.186048 0.039229 0.037881
0.027252 -0.164701 -0.023310
0.155695 0.000350 0.093903
0.052609 -0.110908 0.188908
0.018331 -0.140951 0.205039
-0.104502 0.024529 0.148170
-0.109707 0.004201 0.157409
-0.288161 0.408369 0.050126
-0.288875 0.411211 0.032200
-0.264502 0.365710 0.011234
-0.047917 -0.215559 0.055778
-0.017083 -0.217306 -0.015532
0.239711 -0.010055 -0.192201
0.258764 0.022965 -0.175785
0.268679 0.054184 -0.118942
0.260277 0.095794 -0.064692
0.266646 0.078314 -0.090872
-0.170005 -0.125937 -0.077867
-0.170321 -0.006573 -0.109169
-0.159994 -0.015340 -0.102252
-0.146936 0.109437 -0.103176
-0.130278 0.096692 -0.093196
-0.137963 0.079942 -0.096299
0.203017 0.068702 -0.023158
0.203954 0.070184 -0.031814
0.150789 -0.017408 0.076309
-0.178138 0.202253 0.286979
-0.177584 0.184099 0.284177
-0.170402 0.206245 0.329803
-0.021927 -0.184622 -0.029037
-0.000262 -0.183540 -0.018945
-0.012577 -0.186733 -0.008609
0.014685 -0.143001 -0.049093
0.105866 -0.066030 0.136789
0.075242 -0.097142 0.156968
0.012897 -0.151033 0.185607
-0.039721 -0.217373 0.019759
-0.052171 0.020822 0.138073
-0.049313 0.024286 0.131498
-0.056686 0.011468 0.127377
0.124663 -0.124567 -0.190511
0.068144 -0.160524 -0.163211
-0.212659 0.038673 -0.013578
-0.209488 0.059366 0.008403
-0.212316 0.065859 -0.053722
-0.062099 0.000636 0.126387
-0.071523 0.012163 0.131995
-0.062798 0.005859 0.128830
-0.047164 -0.069195 0.090559
-0.125384 0.070032 -0.088187
-0.131342 0.057821 -0.090448
-0.121987 -0.026676 0.102282
-0.120304 -0.032992 0.093355
-0.114077 -0.019801 0.105261
-0.118220 0.012456 0.170088
-0.108119 0.013981 0.171648
-0.106972 0.004530 0.159952
0.211701 0.083995 -0.024534
0.179157 0.022182 0.022401
0.191328 0.043941 0.009934
0.134286 -0.032131 0.112382
-0.083100 0.011549 0.137115
-0.080174 0.022838 0.136832
-0.036217 -0.064429 0.095227
0.008684 -0.093272 0.101512
0.006955 -0.107324 0.099959
-0.042809 -0.195158 0.142477
-0.059718 -0.200380 0.148308
-0.074416 -0.204761 0.134340
-0.051712 -0.202506 0.129610
-0.037713 -0.205951 0.106679
-0.018919 -0.210191 0.078501
0.005031 -0.195690 -0.101722
0.012731 -0.208758 -0.062117
0.020416 -0.177604 -0.141386
0.206938 -0.057764 -0.193456
0.263137 0.025698 -0.145146
0.190945 0.043652 -0.013345
0.038372 -0.132294 0.150522
0.070897 -0.104663 0.138816
0.044282 -0.125659 0.173230
-0.123945 -0.016172 0.145780
-0.126894 -0.008224 0.151753
-0.115196 -0.016397 0.139953
-0.186941 0.232514 0.102604
-0.197239 0.234355 0.131184
-0.194665 0.231746 0.129147
-0.024196 -0.217494 0.045408
0.171625 -0.099180 -0.180722
0.244328 0.085116 -0.055008
0.238932 0.063101 -0.068181
0.253866 0.075289 -0.073545
0.218174 0.084487 -0.033334
0.206354 0.069228 -0.040064
0.163058 -0.004514 0.038188
0.126889 -0.048338 0.097524
0.097924 -0.078862 0.122610
0.003417 -0.158152 0.170221
-0.032928 -0.183232 0.166156
-0.006134 -0.164454 0.155600
-0.030474 -0.196274 0.123718
-0.149501 -0.000166 -0.096957
-0.147156 -0.028914 -0.092190
0.197187 0.056275 -0.043758
0.200296 0.055797 -0.049255
0.115306 -0.063622 0.087282
0.142380 -0.033695 0.059228
0.195439 0.213110 0.259891
0.199713 0.206628 0.237349
0.197431 0.215824 0.252924
-0.031927 -0.185545 0.148628
-0.116294 0.076096 -0.085347
-0.020455 -0.219111 0.018110
0.001428 -0.217647 0.016877
0.211236 0.064665 -0.049166
0.226162 0.074888 -0.049604
-0.380450 0.542642 0.033705
-0.346823 0.503322 0.024067
-0.366074 0.532528 0.045714
0.188905 0.043036 -0.031349
0.172145 0.010040 0.004605
0.039814 -0.206484 -0.052328
0.041247 -0.200846 -0.077908
0.092269 -0.165955 -0.136688
0.041773 -0.190298 -0.110094
0.164571 -0.118443 -0.146644
0.137476 -0.146510 -0.114465
0.136312 -0.138429 -0.149598
0.252456 0.001648 -0.164962
0.255759 0.026172 -0.113283
0.253598 0.053403 -0.089356
0.219148 0.053943 -0.061650
0.196308 0.056670 -0.033363
0.180566 0.026777 -0.018933
0.183671 0.029761 -0.001353
0.070898 -0.104088 0.116299
-0.162052 0.145807 0.355018
-0.153450 0.132455 0.366694
-0.147648 0.164621 0.381185
-0.014822 -0.199016 0.101592
0.203545 -0.077780 -0.153026
0.235811 -0.030042 -0.166742
0.197035 0.224493 0.257756
0.194371 0.222859 0.269405
0.018641 -0.144750 0.142392
-0.012773 -0.170046 0.142677
-0.012704 -0.175983 0.129954
-0.176622 -0.009568 0.190268
-0.220069 -0.016758 0.223130
-0.214034 -0.012276 0.230424
0.012703 -0.144380 -0.053068
-0.125673 -0.063709 0.110760
-0.134201 -0.050611 0.119890
-0.118993 -0.069154 0.134708
-0.025126 -0.187297 0.132683
0.250567 -0.003050 -0.139453
-0.193909 -0.017857 -0.064273
-0.177304 -0.036527 -0.036131
-0.178553 -0.035712 -0.060545
0.232973 0.040353 -0.077796
0.201918 0.046596 -0.057408
0.090796 -0.086574 0.110378
0.000247 -0.211930 0.052960
0.013521 -0.215269 -0.024503
0.034398 -0.210292 -0.008411
0.157693 -0.013149 0.025225
-0.345676 0.473939 -0.031773
-0.345719 0.490097 -0.006550
-0.366579 0.512003 -0.001649
-0.011307 -0.186136 0.116275
-0.002382 -0.203322 0.079321
-0.391245 0.539282 -0.007771
-0.373578 0.496518 -0.046479
-0.404315 0.535341 -0.016061
0.009117 -0.150490 0.131762
0.019998 -0.195778 0.063293
0.005719 -0.187640 0.092787
-0.159762 -0.139843 -0.062561
0.025749 -0.150527 0.047726
-0.437793 0.442463 -0.071200
-0.433474 0.462334 -0.059933
-0.438197 0.441936 -0.074104
0.023542 -0.111167 0.074624
0.018940 -0.103747 0.084655
-0.084712 0.051149 0.144798
-0.225397 -0.016920 0.114683
-0.259150 -0.019648 0.148816
-0.210598 -0.019158 0.124282
-0.158727 -0.107092 -0.085841
-0.173325 -0.090432 -0.096279
-0.160435 -0.078752 -0.093384
-0.137300 -0.046210 0.087014
-0.124413 -0.065125 0.069086
-0.138586 -0.039328 0.056420
0.027470 -0.160757 -0.032116
0.019313 -0.157844 -0.045473
0.024392 -0.151366 -0.043981
0.145351 -0.029467 0.029573
0.125165 -0.052678 0.057002
0.049987 -0.118708 0.119389
0.032282 -0.129537 0.117494
0.058090 -0.106252 0.094601
0.229150 -0.040975 -0.136108
0.239480 -0.006347 -0.111632
0.236190 0.015376 -0.092994
-0.043866 0.053114 0.154481
-0.043884 0.044707 0.146844
0.190459 0.041650 -0.052428
0.177534 0.025147 -0.033507
0.185515 0.038697 -0.043683
-0.441876 0.405188 -0.084721
-0.449503 0.401774 -0.090031
-0.456706 0.383250 -0.102259
0.027328 -0.118018 0.061587
-0.304777 0.054299 -0.122954
-0.257066 0.042490 -0.128545
-0.269657 0.046361 -0.144671
0.169856 0.010200 -0.017404
0.267728 0.135584 -0.152785
0.003245 -0.158535 0.123302
0.003853 -0.167061 0.112847
0.028944 -0.116845 0.046380
0.031890 -0.125051 0.034433
0.031056 -0.132496 0.027958
-0.052078 -0.019680 0.121139
-0.063336 -0.007530 0.126178
-0.053534 -0.010216 0.121231
0.107920 -0.166231 -0.113425
0.140049 -0.143041 -0.085435
0.172335 -0.113661 -0.119267
-0.147162 -0.085315 -0.020340
-0.161978 -0.089387 -0.029628
-0.157309 -0.084513 -0.029456
-0.054059 0.034414 0.167095
-0.047576 0.044378 0.164481
0.158906 -0.009346 0.004943
-0.179471 -0.044099 -0.077006
-0.168288 -0.051389 -0.057339
-0.172912 -0.053508 -0.065275
-0.291082 -0.040797 -0.074242
-0.294965 -0.033950 -0.065847
-0.308377 -0.019758 -0.078857
-0.157132 -0.080519 -0.032390
-0.144741 -0.081597 -0.020611
-0.231800 -0.060116 -0.094265
-0.247942 -0.043351 -0.114380
-0.224405 -0.054683 -0.100687
-0.170882 -0.063974 -0.057801
-0.179092 -0.055427 -0.072093
-0.164847 -0.061824 -0.051400
-0.282422 -0.029332 -0.053226
-0.270835 -0.028108 -0.052716
-0.290251 -0.001040 -0.052529
-0.124308 0.047142 -0.085108
-0.119844 0.030080 -0.080640
-0.131905 0.033716 -0.088381
-0.285211 0.062798 -0.063955
-0.297779 0.111176 -0.071251
-0.302681 0.088066 -0.061578
-0.234971 -0.084418 -0.062247
-0.239744 -0.087503 -0.055930
-0.256332 -0.073491 -0.066404
-0.035873 -0.087551 0.042972
-0.045730 -0.090539 0.038794
-0.042838 -0.080486 0.042141
-0.328212 0.113987 -0.058360
-0.325752 0.082690 -0.055368
-0.312439 0.085147 -0.057144
-0.273545 -0.055636 -0.079328
-0.274401 -0.059211 -0.066463
-0.115614 0.083042 0.192072
-0.113933 0.104718 0.201965
-0.095900 0.088919 0.196855
-0.097872 -0.059513 0.176355
-0.104635 -0.062864 0.181579
-0.323920 0.022581 -0.062710
-0.306196 -0.011175 -0.061758
-0.302977 0.000370 -0.055219
-0.332382 0.011557 -0.087641
-0.318794 -0.001095 -0.072055
-0.339043 0.031869 -0.076217
0.024712 -0.163858 0.012769
0.024029 -0.159753 0.035525
0.030671 -0.153781 0.031852
0.166439 0.008555 -0.030771
0.157106 -0.007366 -0.014189
-0.126416 -0.185702 0.187504
-0.228211 -0.095797 -0.047426
-0.227035 -0.092162 -0.047270
-0.243208 -0.083777 -0.049840
0.023470 -0.084837 0.077247
0.017720 -0.077435 0.087639
0.021723 -0.076984 0.081382
0.030893 -0.092007 0.065334
0.026003 -0.094937 0.069503
0.020093 -0.085348 0.081977
0.039096 -0.081606 0.058548
0.051470 -0.086470 0.044014
0.040235 -0.090396 0.055499
0.033502 -0.100533 0.057651
0.032666 -0.108558 0.051642
0.010434 -0.114977 -0.063251
-0.002903 -0.101265 -0.069966
-0.002342 -0.110387 -0.063812
0.062800 -0.080610 0.032451
0.066295 -0.089396 0.027994
0.004953 -0.118843 -0.060167
0.069499 -0.098986 0.021779
0.053389 -0.096953 0.039170
0.058345 -0.134043 -0.012620
0.046862 -0.137825 -0.015405
0.049953 -0.130545 0.005674
-0.136476 -0.026936 -0.282426
-0.160342 -0.028313 -0.259492
-0.146023 -0.006668 -0.298087
0.042264 -0.127700 0.016809
0.039831 -0.129884 0.014014
0.035955 -0.119836 0.034644
-0.065097 -0.052250 -0.071673
-0.076522 -0.038895 -0.069759
-0.068118 -0.062091 -0.070506
-0.050362 -0.066267 -0.072550
-0.038212 -0.071032 -0.074872
-0.050238 -0.053858 -0.077533
0.028939 -0.108775 0.054711
0.035228 -0.124104 0.029051
0.030267 -0.114099 0.047571
-0.276795 0.391848 -0.100782
-0.268735 0.381495 -0.109477
-0.263290 0.369696 -0.114425
-0.081782 -0.014708 -0.068975
-0.087060 0.012780 -0.068552
-0.091048 -0.004491 -0.067863
0.041740 -0.120468 0.029630
0.000973 -0.035574 0.102714
0.004792 -0.039598 0.102570
0.003642 -0.038026 0.105123
0.007443 -0.047383 0.107345
0.007987 -0.047809 0.107098
0.006863 -0.044387 0.107297
0.013237 -0.046758 0.094116
0.016810 -0.042990 0.088335
0.019251 -0.045985 0.085076
0.008850 -0.047032 0.104564
0.010231 -0.052797 0.104044
0.011954 -0.063495 0.099155
0.014643 -0.063201 0.093170
0.015559 -0.069712 0.091830
0.018456 -0.085279 0.084552
0.017036 -0.080802 0.088380
0.021625 -0.092433 0.076423
0.022433 -0.093807 0.073885
0.017457 -0.079866 0.088345
-0.057945 0.005925 -0.106130
-0.053621 0.016991 -0.120983
-0.063983 0.030977 -0.113318
-0.114662 -0.097546 -0.070719
-0.105533 -0.082511 -0.072013
-0.116372 -0.066111 -0.075062
0.145240 -0.042432 -0.143939
0.169144 -0.033961 -0.134474
0.167637 -0.013357 -0.150817
-0.102170 0.071085 0.225935
-0.124181 0.065489 0.259802
-0.114413 0.079486 0.253673
0.026564 -0.100856 0.064658
0.118934 -0.083807 -0.113046
0.110621 -0.099773 -0.093062
0.137069 -0.080105 -0.107026
0.191685 -0.003582 -0.133189