# vtk DataFile Version 3.0
3D Unstructured Surface
ASCII
DATASET UNSTRUCTURED_GRID
POINTS 8455 float
19.839207 32.186979 -27.411524
19.706433 32.282260 -27.498879
19.838733 32.149885 -27.593828
19.706958 32.260632 -27.713570
19.488077 30.799121 -30.010140
19.634989 30.929394 -30.074813
19.629981 30.719861 -30.024910
19.563494 32.548626 -28.318999
19.578893 32.458900 -28.138633
19.446934 32.624486 -28.141211
19.660066 32.508203 -28.462188
19.681979 32.403810 -28.318822
19.590615 32.880381 -28.817940
19.734990 32.717006 -28.825097
19.573778 32.758624 -28.659173
19.723272 32.873745 -28.953806
19.607210 32.983066 -28.934761
19.704531 33.035648 -29.061468
19.831295 33.089543 -29.176201
19.675537 33.199432 -29.146584
19.855397 33.255046 -29.264962
19.849901 33.409035 -29.317288
20.018759 33.350177 -29.341665
19.914718 33.564369 -29.370573
20.116220 33.560596 -29.390149
20.249253 33.381676 -29.377340
20.327140 33.568876 -29.394618
20.199693 33.735131 -29.404565
20.386703 33.766333 -29.397030
20.559184 33.836338 -29.370331
20.397568 33.941504 -29.393146
20.535121 34.006033 -29.368870
20.739283 33.987823 -29.315622
19.099828 31.324134 -25.393830
19.251791 31.313120 -25.576509
19.262206 31.474403 -25.432625
20.942475 34.402187 -29.140033
21.034246 34.227803 -29.132543
20.811454 34.228965 -29.251392
21.189618 34.522741 -28.892978
21.335972 34.483340 -28.731105
21.292849 34.341241 -28.866342
21.706177 34.186568 -27.758600
21.686238 34.231369 -28.023551
21.626321 34.416635 -27.853577
21.695342 33.865208 -27.193619
21.757219 33.800617 -27.378616
21.710794 34.011916 -27.388998
20.496540 31.018811 -28.634187
20.648705 30.883145 -28.521451
20.692766 30.970395 -28.699269
21.630556 33.930085 -26.984429
21.657082 34.081638 -27.193342
21.601950 34.139214 -26.976577
20.850883 32.804820 -26.156371
21.058419 32.872267 -26.216982
20.911999 32.983892 -26.093207
20.428771 32.228986 -26.675040
20.509565 32.334425 -26.516181
20.316647 32.345425 -26.554841
20.297942 32.170944 -26.836602
20.252995 32.267763 -26.692445
20.072681 32.267451 -26.814703
20.181377 32.135794 -26.992467
19.782681 32.189507 -27.956273
19.624406 32.362901 -27.959208
21.587140 34.461989 -28.096717
21.631636 34.276368 -28.258728
20.683024 32.474395 -26.355024
20.744932 32.629057 -26.238242
20.560967 32.546985 -26.298195
18.984760 30.493218 -26.405417
18.751114 30.458081 -26.364709
18.898133 30.391377 -26.532682
20.571931 32.428953 -26.404620
16.905731 30.655224 -28.964878
17.024002 30.833679 -29.053212
17.122052 30.640055 -29.000525
19.724007 32.296040 -28.163589
19.718277 32.579390 -28.655817
20.418068 30.309778 -28.711436
20.381012 30.325693 -28.916478
20.592623 30.430882 -28.822358
20.022063 33.143019 -29.279675
19.947176 36.961194 -28.982056
19.719115 37.045612 -29.040786
19.848934 37.151060 -28.905329
20.578219 36.746941 -28.445810
20.659488 36.546769 -28.500507
20.542798 36.611722 -28.640600
20.649721 36.377982 -28.664939
20.489853 36.444997 -28.841910
18.695313 31.797415 -27.624497
18.610080 31.855620 -27.795953
18.505254 31.940555 -27.618371
18.880510 31.780249 -27.017701
18.652460 31.919042 -26.989146
18.784899 31.881943 -26.800183
19.035308 31.711809 -26.969963
18.976439 31.778207 -26.817523
19.128647 31.690461 -26.869459
19.345620 31.730759 -26.302415
19.318416 31.679647 -26.556271
19.178013 31.779639 -26.447142
19.345268 31.797574 -25.916675
19.458857 31.619699 -25.847520
19.443110 31.695014 -26.092757
18.565361 30.142750 -26.824939
18.499329 30.231738 -26.639290
18.382530 30.098397 -26.837030
21.444764 34.306433 -28.682109
21.408364 34.152447 -28.823855
20.862504 32.458998 -26.374303
20.967833 32.663413 -26.272545
17.228723 30.088752 -28.731649
17.056418 30.202931 -28.768104
17.279067 30.276261 -28.869007
20.055286 30.266843 -29.477677
19.900318 30.147196 -29.310963
19.835044 30.186295 -29.524742
20.570080 33.622276 -29.380046
20.463485 33.397445 -29.385403
20.741421 33.773193 -29.335986
19.390862 31.503686 -25.647179
19.484006 31.446503 -25.818284
19.087617 30.811099 -26.005520
19.305314 30.793636 -26.134860
19.268928 30.938250 -25.953361
19.670541 30.399305 -29.876369
19.699517 30.246065 -29.721028
19.497862 30.342791 -29.823548
21.456022 34.432742 -28.567598
21.553677 34.299296 -28.475008
21.796963 33.969418 -27.947788
19.491924 33.345921 -29.097200
19.535578 33.144848 -28.994526
19.966979 32.079792 -27.449371
20.094592 32.040058 -27.309553
19.940378 32.150989 -27.278022
19.813929 32.372502 -28.526331
19.938300 32.212565 -28.475061
19.837046 32.237949 -28.334514
20.432894 33.072693 -25.903085
20.254991 33.041504 -25.920687
20.339680 32.910649 -26.014402
17.148788 30.993372 -29.131665
17.028612 31.219543 -29.183539
17.260706 31.155689 -29.207595
17.004512 31.413421 -29.242895
17.190532 31.353609 -29.255504
19.565771 31.508376 -25.995263
21.131382 34.018952 -29.125619
21.228256 34.175138 -29.002573
21.642928 34.162745 -28.397366
21.724198 34.088118 -28.216455
21.778836 33.923143 -27.618712
21.699598 34.145249 -27.540089
21.735434 33.650976 -27.212706
21.589561 33.538324 -26.785535
21.621225 33.283222 -26.837860
21.693735 33.463561 -27.034588
19.620150 31.746041 -30.035706
19.788879 31.718048 -30.086795
19.649332 31.506416 -30.094370
20.708899 32.346566 -26.471801
19.876548 32.572223 -28.829961
18.799283 31.747808 -27.447217
18.606110 31.881701 -27.395917
18.727939 31.829948 -27.203370
19.047071 31.666719 -27.139992
19.208652 31.606130 -27.049686
19.735976 31.889057 -30.004713
19.867740 32.733049 -28.962937
19.474978 31.616887 -26.454306
19.560087 31.580120 -26.237889
19.860997 32.912682 -29.089201
20.203861 33.184854 -29.335105
21.333057 33.991098 -28.974364
21.870158 33.733666 -27.787878
21.196818 32.706835 -26.367347
20.646083 32.215661 -26.633182
20.863628 32.286722 -26.521102
19.894688 32.082338 -29.648619
20.054785 31.917450 -29.648799
19.883557 32.011735 -29.863314
17.218485 30.460750 -28.946188
17.400073 30.426583 -28.978613
17.275562 30.822612 -29.101652
20.097307 31.090124 -28.226577
20.131030 31.097135 -28.448277
19.953191 31.161274 -28.392333
18.715810 30.215290 -26.754800
18.714806 30.114547 -26.932502
19.295571 31.622241 -26.814178
19.505505 31.552159 -26.647218
20.580503 31.092231 -28.843576
20.676921 31.122572 -29.038273
20.444856 31.236142 -29.025766
18.928217 31.704720 -27.257404
20.715505 30.555253 -28.615339
20.541545 30.377537 -28.578419
19.030852 31.502867 -25.086831
18.959587 31.361262 -25.206683
19.137161 31.470066 -25.254253
19.870900 32.099814 -27.773309
19.896705 32.435084 -28.712603
18.741272 31.005207 -25.536642
18.903878 31.077652 -25.547573
18.739800 31.108928 -25.384950
19.999943 32.965207 -29.192171
20.382109 33.215575 -29.363831
20.884174 33.876989 -29.280688
20.942518 33.712590 -29.283854
21.505124 33.958603 -28.807598
21.557297 34.120108 -28.628652
18.553005 30.034411 -27.021215
20.516554 30.441468 -29.098477
21.836010 33.661191 -27.542744
20.259594 30.351670 -29.367149
20.113257 30.247940 -29.248575
20.379057 32.044304 -27.000596
20.588195 31.965113 -26.980070
20.761617 31.913263 -26.954607
20.708765 32.046358 -26.822716
19.872831 32.133686 -28.152266
20.029259 32.781576 -29.103593
19.745127 30.567908 -29.972456
19.519473 30.582520 -29.955193
20.181610 33.000756 -29.273644
20.185961 32.829620 -29.202073
14.193312 31.863548 -29.137079
14.304403 31.900052 -28.969142
14.202498 31.717283 -28.946917
17.447314 31.102589 -29.236102
17.317221 30.994392 -29.168827
20.703872 33.387561 -29.367894
20.599033 33.204579 -29.372659
21.138003 33.674666 -29.202375
21.038440 33.861914 -29.215213
17.724705 30.797507 -25.201398
17.615344 30.869638 -25.027721
17.564606 30.723525 -25.243306
21.798974 33.588331 -27.368705
21.405825 33.339235 -26.430247
21.366507 33.098630 -26.414844
21.509113 33.235531 -26.610725
20.512974 32.107846 -26.822035
19.553293 31.221321 -30.073885
19.752253 31.315893 -30.132763
20.085365 31.855239 -29.922203
19.911325 31.861005 -30.013801
19.948429 32.030192 -27.982263
20.825977 33.574116 -29.335264
21.820291 33.877999 -28.203017
21.775423 33.454137 -27.239743
21.731941 33.248735 -27.075007
21.015743 32.355916 -26.476522
20.226741 32.025101 -27.169593
20.431692 31.904533 -27.191055
18.896876 30.292730 -26.693760
18.910563 30.156788 -26.932966
19.984989 32.094304 -28.339238
21.037658 33.527690 -29.271336
21.721690 33.982485 -28.412558
21.330814 32.887169 -26.420038
21.214466 33.048718 -26.267736
20.032435 31.991971 -28.182885
14.765094 30.529342 -26.012324
14.705297 30.337178 -25.795562
14.590367 30.293367 -25.974769
19.907439 30.277918 -29.672330
19.986792 32.281592 -28.635477
20.072079 32.402683 -28.844269
17.343655 30.615660 -29.042896
17.528045 30.549854 -29.068789
17.476484 30.736725 -29.123459
20.318896 33.060472 -29.327330
17.848803 31.223370 -23.989478
18.079921 31.359142 -24.008723
18.031219 31.179818 -24.144260
17.342225 31.459437 -29.320905
17.535266 31.435879 -29.361824
17.401201 31.299597 -29.285500
20.926219 33.361530 -29.326172
21.882597 33.753821 -28.006594
21.915033 33.518084 -27.699107
21.855452 33.435712 -27.445039
21.291727 32.524160 -26.509490
21.088317 32.495638 -26.409941
21.174680 32.344930 -26.541419
14.907221 33.298084 -29.524575
15.072489 33.446181 -29.356208
14.974696 33.249117 -29.317416
17.589706 30.375153 -29.013662
17.475990 30.272398 -28.925121
20.135014 31.874048 -28.013936
20.025168 32.597628 -28.973010
20.352477 32.905071 -29.288011
19.015993 33.866301 -23.642124
18.940012 33.650236 -23.627038
18.860156 33.835559 -23.525026
21.420061 33.786913 -28.971901
21.921631 33.198509 -27.505993
21.833804 33.233656 -27.302573
20.751234 30.583385 -29.051087
16.367680 31.210151 -23.562863
16.444298 31.371616 -23.646814
16.496575 31.323339 -23.450151
20.481400 33.042544 -29.349385
20.801260 33.185358 -29.358217
21.386894 32.705287 -26.523334
21.430434 32.846070 -26.539272
21.222634 31.657363 -28.859646
21.372895 31.505015 -28.785067
21.172809 31.524117 -28.688027
20.703929 31.817795 -27.111181
20.265143 31.930583 -27.322630
20.141686 31.939273 -27.501957
20.367658 31.803039 -27.467714
[...]
POINT_DATA 8455
VECTORS Displacement float
-0.079207 -0.106579 0.106624
-0.083433 -0.104860 0.096379
-0.080033 -0.115885 0.095428
-0.083958 -0.115532 0.081270
-0.038677 -0.140221 0.013140
-0.031889 -0.142094 0.007313
-0.031681 -0.132961 0.018010
-0.083394 -0.122426 0.007699
-0.085593 -0.121900 0.030533
-0.090134 -0.107986 0.011211
-0.076366 -0.132403 0.002588
-0.078779 -0.134110 0.022922
-0.066915 -0.109481 -0.055560
-0.059490 -0.128206 -0.038603
-0.074078 -0.116724 -0.036127
-0.052872 -0.115545 -0.058794
-0.060110 -0.101566 -0.069139
-0.046431 -0.099548 -0.076632
-0.027595 -0.095643 -0.083699
-0.040937 -0.081332 -0.091516
-0.014597 -0.075546 -0.097638
-0.006401 -0.055235 -0.107512
0.014741 -0.060377 -0.104435
0.011482 -0.032469 -0.113627
0.041180 -0.027496 -0.108051
0.051547 -0.048476 -0.100360
0.072160 -0.018776 -0.093982
0.061107 -0.000031 -0.098135
0.086497 0.009967 -0.075370
0.105516 0.023562 -0.044369
0.091132 0.032496 -0.055754
0.104279 0.042567 -0.025830
0.116517 0.042877 0.003122
-0.041428 0.052266 0.089930
-0.049191 0.048780 0.090409
-0.045606 0.051797 0.090425
0.104125 0.070513 0.089033
0.108954 0.057697 0.073143
0.112746 0.063635 0.049292
0.083282 0.061559 0.116978
0.072528 0.051960 0.112505
0.085651 0.051359 0.098742
0.040823 0.032532 0.054500
0.044762 0.032731 0.064751
0.036279 0.035065 0.079177
0.049258 0.036492 0.026519
0.051681 0.032683 0.020416
0.043606 0.034384 0.035998
-0.054540 -0.098911 0.061987
-0.058505 -0.080245 0.065851
-0.053166 -0.092295 0.059069
0.045944 0.040515 0.034129
0.039918 0.037362 0.042042
0.036350 0.040586 0.048377
0.035817 -0.001420 0.129071
0.055481 0.008433 0.107782
0.045901 0.019808 0.118207
-0.036471 -0.079286 0.139640
-0.022765 -0.065525 0.143581
-0.039747 -0.067225 0.146641
-0.050742 -0.088944 0.135302
-0.049095 -0.077163 0.141945
-0.061981 -0.080051 0.137903
-0.061177 -0.095794 0.129267
-0.080381 -0.130107 0.067073
-0.085706 -0.120601 0.053908
0.041660 0.037111 0.090717
0.051164 0.034832 0.076528
0.002876 -0.044695 0.141024
0.017668 -0.024557 0.138842
-0.005367 -0.039085 0.148095
-0.071960 0.014182 0.074417
-0.080414 0.006819 0.069409
-0.076933 0.006123 0.068782
-0.011031 -0.052953 0.144920
-0.193031 -0.056124 -0.040622
-0.193202 -0.051879 -0.054488
-0.189152 -0.065455 -0.043175
-0.079907 -0.134140 0.043889
-0.067677 -0.134790 -0.016483
-0.057668 -0.034878 0.074036
-0.053912 -0.043793 0.072378
-0.058423 -0.043382 0.074158
0.002437 -0.088219 -0.090725
-0.008476 0.041606 0.177856
-0.015815 0.045788 0.180786
-0.020034 0.023640 0.176729
-0.006619 0.023459 0.173710
0.000212 0.032931 0.180607
0.001302 0.036378 0.179300
0.009179 0.045818 0.185239
0.011647 0.054103 0.182510
-0.114713 -0.016415 0.068197
-0.118680 -0.015320 0.052353
-0.116954 0.001845 0.047271
-0.096210 -0.001349 0.102701
-0.099660 0.013358 0.082446
-0.091399 0.012957 0.098783
-0.092008 -0.006009 0.112863
-0.088739 0.003293 0.111623
-0.088047 -0.004561 0.117359
-0.073020 0.015141 0.116015
-0.079216 0.004653 0.118771
-0.076313 0.012861 0.118342
-0.062768 0.031126 0.110275
-0.062557 0.034201 0.101320
-0.068810 0.022686 0.109757
-0.093661 -0.019250 0.055239
-0.096229 -0.014838 0.055490
-0.101830 -0.026597 0.051530
0.072736 0.043167 0.093009
0.085936 0.040553 0.078755
0.019896 -0.041398 0.129903
0.040767 -0.015913 0.121745
-0.162423 -0.072752 0.002749
-0.172918 -0.068831 -0.006196
-0.172667 -0.078161 -0.014893
-0.038586 -0.071143 0.055377
-0.040618 -0.066696 0.053763
-0.037444 -0.078295 0.048442
0.102720 -0.002476 -0.064054
0.082315 -0.036845 -0.086297
0.117779 0.020507 -0.025314
-0.054962 0.044414 0.093979
-0.061406 0.037897 0.094884
-0.060617 0.032201 0.087320
-0.062714 0.031964 0.084760
-0.058828 0.037650 0.088361
-0.033241 -0.109205 0.034269
-0.035617 -0.093865 0.041028
-0.038662 -0.112291 0.032848
0.062978 0.044458 0.103298
0.060423 0.038204 0.086208
0.048737 0.027982 0.037688
-0.053824 -0.061321 -0.103000
-0.059678 -0.083748 -0.085474
-0.075779 -0.113392 0.106071
-0.070492 -0.110358 0.113353
-0.075078 -0.103489 0.115422
-0.067729 -0.146202 0.011431
-0.063600 -0.153965 0.027361
-0.072046 -0.145649 0.035714
0.001206 0.026107 0.148885
-0.016191 0.018996 0.157887
-0.011480 0.003251 0.156902
-0.190488 -0.046872 -0.064335
-0.188712 -0.024043 -0.070861
-0.185006 -0.039789 -0.069705
-0.183512 -0.006421 -0.073705
-0.180132 -0.019909 -0.072896
-0.067871 0.027724 0.099363
0.113418 0.042348 0.052619
0.100244 0.048062 0.078173
0.058672 0.032955 0.069066
0.052702 0.029882 0.055655
0.047364 0.030457 0.029512
0.039702 0.033651 0.047889
0.058266 0.033924 0.013406
0.064139 0.040776 0.023335
0.073775 0.032078 0.017160
0.066765 0.034039 0.010388
-0.044050 -0.144541 -0.016194
-0.033179 -0.149048 -0.015305
-0.038432 -0.148316 -0.013830
-0.002199 -0.058866 0.136601
-0.051448 -0.143223 -0.024639
-0.108883 -0.016408 0.084817
-0.111410 0.000599 0.066417
-0.104439 -0.000648 0.085170
-0.095971 -0.014719 0.110992
-0.091052 -0.015930 0.118186
-0.038876 -0.145857 -0.015787
-0.043640 -0.131849 -0.045563
-0.077578 0.006013 0.114506
-0.073687 0.014980 0.107489
-0.034097 -0.115182 -0.066399
0.032539 -0.077954 -0.093495
0.101343 0.036202 0.060064
0.053042 0.025434 0.016478
0.060982 -0.007335 0.097247
-0.016483 -0.075961 0.134282
0.009572 -0.060422 0.126402
-0.037688 -0.150138 -0.010481
-0.029985 -0.155950 -0.004301
-0.033757 -0.149235 -0.012786
-0.182285 -0.074650 -0.030412
-0.177573 -0.083183 -0.028887
-0.188962 -0.063612 -0.056448
-0.067007 -0.092624 0.084377
-0.060930 -0.103335 0.075077
-0.065891 -0.104674 0.081733
-0.086610 -0.010190 0.059400
-0.086606 -0.017147 0.057102
-0.085171 -0.006741 0.119978
-0.081605 -0.003459 0.115718
-0.047903 -0.108931 0.052176
-0.041921 -0.112572 0.045373
-0.041156 -0.127142 0.040766
-0.101417 -0.015020 0.101104
-0.061105 -0.048053 0.072139
-0.061145 -0.033337 0.074819
-0.030952 0.058333 0.089931
-0.034487 0.054538 0.090383
-0.037661 0.055734 0.089353
-0.078800 -0.125614 0.084609
-0.056405 -0.150184 -0.005797
-0.052072 0.038293 0.088242
-0.047778 0.043248 0.090473
-0.045500 0.043472 0.089350
-0.012243 -0.110207 -0.074529
0.060991 -0.066175 -0.089669
0.121826 0.033011 0.007588
0.124282 0.017910 -0.005746
0.087276 0.030797 0.058498
0.072103 0.034592 0.071752
-0.093405 -0.026811 0.054015
-0.052654 -0.053768 0.071177
0.055790 0.027909 0.010644
-0.043094 -0.064270 0.062749
-0.043257 -0.060740 0.061275
-0.051157 -0.100904 0.124996
-0.037795 -0.100813 0.118870
-0.024817 -0.097563 0.112607
-0.021165 -0.090458 0.122716
-0.074431 -0.141886 0.055766
-0.020259 -0.129876 -0.055507
-0.029527 -0.118908 0.027856
-0.036473 -0.128520 0.023493
0.016590 -0.102956 -0.079756
0.004839 -0.123320 -0.063327
-0.346512 0.375652 -0.015221
-0.350003 0.371148 -0.019558
-0.356698 0.364917 -0.027683
-0.182014 -0.053489 -0.065698
-0.187221 -0.054692 -0.064473
0.107628 -0.026461 -0.062406
0.088267 -0.056079 -0.075741
0.122997 0.016934 0.010975
0.121660 0.031986 0.023513
-0.095605 0.012893 0.061298
-0.092744 0.015262 0.067121
-0.103606 0.005675 0.056806
0.059526 0.029869 0.007605
0.068975 0.041865 0.047147
0.073293 0.028070 0.059144
0.074087 0.033569 0.033925
-0.035974 -0.091146 0.130635
-0.040093 -0.148121 -0.005615
-0.029753 -0.148893 -0.009437
-0.022565 -0.153939 -0.008297
-0.029125 -0.150605 -0.013199
-0.074329 -0.137392 0.072563
0.120423 0.000684 -0.034736
0.055509 0.024801 0.035517
0.065477 0.029763 0.003643
0.073659 0.026865 0.003807
0.028557 -0.047916 0.117222
-0.063141 -0.106801 0.118993
-0.054092 -0.110433 0.112455
-0.078476 -0.000130 0.064560
-0.078263 -0.008888 0.060166
-0.065589 -0.152604 0.044338
0.125442 0.002110 -0.013964
0.061510 0.027515 0.051158
0.072486 0.011131 0.072938
0.067134 0.025682 0.082336
-0.067535 -0.147871 0.060085
-0.217894 0.069558 0.040624
-0.175897 0.059922 0.021662
-0.186767 0.068533 0.006969
-0.034739 -0.084318 0.047130
-0.055192 -0.157592 0.011477
-0.039279 -0.157783 -0.010231
-0.184955 -0.076260 -0.043304
-0.179245 -0.087154 -0.038111
-0.184384 -0.077925 -0.050641
0.041304 -0.090272 -0.083270
-0.025203 0.039830 0.084678
-0.015221 0.048958 0.085623
-0.022819 0.041482 0.082160
-0.170925 -0.018237 -0.069895
-0.165966 -0.031079 -0.063476
-0.176401 -0.035097 -0.069000
0.120781 -0.019130 -0.039028
0.054103 0.023479 0.021094
0.059167 0.022916 0.002407
0.063848 0.025488 -0.000761
0.061073 -0.023560 0.089690
0.043183 -0.031438 0.111941
0.042820 -0.044230 0.103419
-0.321521 0.406616 0.070375
-0.310889 0.399219 0.068208
-0.318496 0.401083 0.056716
-0.170706 -0.092353 -0.024438
-0.168290 -0.086598 -0.015879
-0.067014 -0.141348 0.074036
-0.032668 -0.145628 -0.033590
0.034623 -0.108871 -0.070789
-0.046393 0.133899 0.073624
-0.033812 0.127864 0.082438
-0.040756 0.134341 0.068626
0.103439 0.024287 0.040601
0.069669 0.018491 -0.010007
0.071496 0.022644 -0.004927
-0.054334 -0.059685 0.068887
-0.076280 0.037949 0.094063
-0.088698 0.040884 0.109414
-0.072375 0.040861 0.095851
0.062900 -0.084644 -0.077415
0.106740 -0.046558 -0.058683
0.072606 -0.004687 0.071834
0.076566 0.007930 0.059572
0.008466 -0.126263 0.018046
0.004305 -0.113615 0.021167
-0.007309 -0.125517 0.029527
-0.036029 -0.105295 0.106481
-0.064243 -0.114383 0.109830
-0.070486 -0.119973 0.102357
-0.061858 -0.119939 0.099514
-0.038499 -0.073060 0.057434
-0.085368 -0.015097 0.116877
-0.058878 -0.151738 0.059289
0.083779 -0.079330 -0.065013
0.122293 0.002761 0.000925
0.114645 0.014928 0.021492
0.079871 0.019141 0.028924
0.082410 0.007203 0.023492
0.079556 0.019597 0.011244
-0.026328 -0.128879 0.018466
0.079527 0.003560 0.047596
0.024912 -0.060305 0.111720
0.000458 -0.077340 0.120100
-0.064615 0.034929 0.091845
-0.071769 0.022656 0.095843
-0.174234 0.236138 0.110958
-0.179231 0.239967 0.097424
-0.156677 0.202873 0.082666
-0.060084 -0.155790 0.048046
-0.039311 -0.165746 0.013969
0.119194 -0.033263 -0.037716
0.123993 -0.013770 -0.020246
0.113421 0.003145 0.009201
0.088804 0.020855 0.038559
0.101714 0.014052 0.025949
-0.178286 -0.090459 -0.043671
-0.161186 -0.014274 -0.064279
-0.154557 -0.024905 -0.055808
-0.119154 0.052498 -0.039774
-0.104380 0.039447 -0.030158
-0.117140 0.033000 -0.037721
0.064836 0.020031 -0.006599
0.062815 0.018056 -0.004711
0.080142 -0.010507 0.041612
-0.104003 0.115378 0.080416
-0.099631 0.112649 0.082845
-0.105910 0.121619 0.099592
-0.063912 -0.138210 0.018626
-0.048149 -0.129009 0.025151
-0.060208 -0.123573 0.027443
-0.023326 -0.151782 -0.012225
0.059270 -0.037583 0.082269
0.039310 -0.057052 0.095455
-0.007422 -0.088997 0.110448
-0.053611 -0.161381 0.030432
-0.030538 0.034670 0.077205
-0.028769 0.036360 0.074532
-0.038608 0.028041 0.072219
0.057481 -0.109075 -0.059018
0.021629 -0.133075 -0.049559
-0.093438 0.057032 -0.075209
-0.090956 0.064773 -0.066203
-0.090982 0.065446 -0.101521
-0.068984 0.024265 0.078550
-0.067031 0.029431 0.082425
-0.065885 0.026615 0.080514
-0.082710 -0.020269 0.056783
-0.105961 0.021708 -0.029341
-0.115256 0.016337 -0.034033
-0.106089 0.001410 0.049253
-0.109382 -0.004477 0.045934
-0.100300 0.004744 0.052606
-0.069419 0.032428 0.090190
-0.062567 0.032010 0.090074
-0.064189 0.025713 0.085191
0.057996 0.020659 0.006470
0.082016 0.008757 0.006200
0.077627 0.018131 -0.001523
0.073684 -0.016424 0.064124
-0.070126 0.027716 0.084945
-0.063968 0.034624 0.085686
-0.074766 -0.012842 0.058871
-0.057604 -0.058104 0.068506
-0.057801 -0.070413 0.065426
-0.060718 -0.126258 0.087821
-0.066599 -0.126735 0.092490
-0.072163 -0.130752 0.087426
-0.064999 -0.133624 0.083188
-0.059486 -0.142460 0.071370
-0.049489 -0.152049 0.056713
-0.020112 -0.154599 -0.024212
-0.018783 -0.163316 -0.006182
-0.008461 -0.143298 -0.041534
0.104377 -0.063351 -0.050516
0.120292 -0.011635 -0.008989
0.075506 0.014586 -0.010173
0.008550 -0.084952 0.093175
0.034831 -0.066662 0.086748
0.016521 -0.074401 0.104534
-0.078223 0.020511 0.079947
-0.078943 0.024343 0.083138
-0.072322 0.017515 0.076219
-0.076167 0.168973 -0.017552
-0.087945 0.167193 -0.013720
-0.084553 0.168787 -0.006414
-0.048558 -0.161028 0.042047
0.084563 -0.090956 -0.052082
0.078073 0.016591 0.027440
0.083175 0.008578 0.012008
0.089837 0.012663 0.023301
0.060582 0.018584 0.013452
0.063240 0.015626 -0.001889
0.083090 -0.006102 0.018584
0.071018 -0.030360 0.058751
0.054085 -0.049809 0.076301
-0.018483 -0.097602 0.102177
-0.049264 -0.113272 0.098842
-0.031054 -0.105193 0.093556
-0.057030 -0.132428 0.077952
-0.143191 -0.017852 -0.047762
-0.146138 -0.040473 -0.043090
0.066882 0.012604 -0.011291
0.067442 0.010853 -0.008998
0.064639 -0.043982 0.055267
0.078136 -0.024543 0.035065
-0.005808 0.026466 0.130214
-0.003152 0.025262 0.130705
-0.006596 0.024130 0.134947
-0.053957 -0.119055 0.089560
-0.092877 0.020821 -0.023873
-0.044121 -0.164802 0.029334
-0.032779 -0.165447 0.028190
0.067219 0.012394 0.000218
0.069937 0.014143 0.013366
-0.274701 0.373150 0.103214
-0.241938 0.329320 0.095354
-0.258414 0.355629 0.111933
0.073078 0.011308 -0.015416
0.082360 -0.000704 -0.000670
-0.003975 -0.162365 -0.001766
-0.000823 -0.159163 -0.012606
0.034526 -0.136513 -0.037594
0.002100 -0.152443 -0.026691
0.078423 -0.102897 -0.041316
0.060292 -0.121855 -0.030333
0.062026 -0.117310 -0.042632
0.121108 -0.025520 -0.023643
0.109761 -0.010239 -0.003141
0.097760 0.003431 0.010316
0.075758 0.006829 -0.000140
0.068072 0.015293 -0.012202
0.078534 0.005815 -0.012356
0.079764 0.009852 -0.005373
0.033056 -0.071593 0.074709
-0.091649 0.116586 0.129184
-0.086356 0.116362 0.138720
-0.091129 0.126194 0.138237
-0.049854 -0.140161 0.066314
0.100088 -0.074716 -0.039959
0.115716 -0.044360 -0.034000
-0.009295 0.022754 0.141166
-0.009336 0.024813 0.135498
-0.011172 -0.096047 0.087767
-0.041741 -0.111547 0.085748
-0.046621 -0.118293 0.078658
-0.116641 0.029303 0.104619
-0.151890 0.026362 0.124743
-0.145131 0.027489 0.127471
-0.026369 -0.150307 -0.013107
-0.111348 -0.044721 0.082973
-0.110935 -0.031033 0.084400
-0.105438 -0.044818 0.097934
-0.053742 -0.124450 0.081205
0.116765 -0.027093 -0.018136
-0.146138 0.043002 -0.043582
-0.133952 0.031810 -0.025267
-0.135389 0.032068 -0.037673
0.088607 -0.000805 -0.000363
0.071812 0.006019 -0.010378
0.048658 -0.058425 0.070531
-0.037635 -0.157980 0.043729
-0.021827 -0.166679 0.010175
-0.011696 -0.163180 0.016364
0.082319 -0.013772 0.013134
-0.249240 0.319878 0.052183
-0.245358 0.325378 0.072338
-0.265434 0.351299 0.075792
-0.048430 -0.128246 0.072095
-0.042145 -0.147996 0.055164
-0.287115 0.381624 0.068447
-0.275118 0.351107 0.036981
-0.301667 0.390990 0.060277
-0.024308 -0.102543 0.080506
-0.029167 -0.146316 0.045256
-0.039724 -0.135139 0.059347
-0.172084 -0.097413 -0.032014
-0.035705 -0.124351 0.036706
-0.339524 0.384018 -0.002254
-0.335162 0.391504 0.010732
-0.339440 0.380630 -0.004727
-0.047037 -0.062684 0.066595
-0.050388 -0.063161 0.067848
-0.041108 0.049177 0.090614
-0.167588 0.044342 0.061277
-0.194303 0.042598 0.084350
-0.154634 0.039591 0.066558
-0.168465 -0.088397 -0.044784
-0.176805 -0.072117 -0.056457
-0.165455 -0.070510 -0.049499
-0.116936 -0.033076 0.064731
-0.115322 -0.054826 0.059984
-0.119616 -0.032948 0.046393
-0.023995 -0.136500 0.008919
-0.026409 -0.144989 -0.001364
-0.021740 -0.146696 -0.006634
0.078833 -0.025544 0.017806
0.069826 -0.040251 0.036616
0.014852 -0.082977 0.076237
-0.003400 -0.092123 0.073760
0.018977 -0.079923 0.060732
0.110003 -0.049776 -0.028360
0.107766 -0.027480 -0.015113
0.099202 -0.014143 -0.008029
-0.008952 0.055327 0.086494
-0.013708 0.049860 0.082990
0.070844 0.006073 -0.016691
0.076695 0.002649 -0.017730
0.072238 0.007146 -0.018457
-0.344522 0.369080 -0.019854
-0.351360 0.368955 -0.023934
-0.358142 0.358803 -0.036001
-0.041858 -0.071410 0.061194
-0.238835 0.098259 -0.081119
-0.199100 0.076928 -0.085862
-0.210162 0.077132 -0.096058
0.080307 -0.003632 -0.011001
0.118252 0.047437 0.036577
-0.034808 -0.109503 0.074527
-0.039147 -0.117321 0.068337
-0.035830 -0.067326 0.057671
-0.031635 -0.082068 0.050576
-0.031860 -0.080814 0.049661
-0.073517 0.013997 0.074667
-0.073303 0.018966 0.077918
-0.069941 0.019684 0.074936
0.042338 -0.136053 -0.028445
0.059962 -0.118704 -0.021727
0.081140 -0.098564 -0.032967
-0.136039 -0.000351 0.013569
-0.146941 0.000175 0.008754
-0.141209 0.004413 0.006123
-0.022717 0.043675 0.088076
-0.014849 0.050076 0.087813
0.081610 -0.013800 0.001825
-0.138297 0.029116 -0.042858
-0.130857 0.024347 -0.030097
-0.135550 0.024799 -0.033076
-0.238100 0.038509 -0.013858
-0.241894 0.040077 -0.004890
-0.250424 0.052600 -0.017241
-0.138280 0.008270 0.001368
-0.131694 0.003227 0.010510
-0.187283 0.030255 -0.041944
-0.196735 0.038526 -0.058624
-0.179218 0.032369 -0.049406
-0.138179 0.020856 -0.024098
-0.141353 0.025563 -0.035799
-0.132148 0.020171 -0.021977
-0.233224 0.033072 0.007352
-0.224331 0.027526 0.007336
-0.237863 0.049673 0.009114
-0.110082 0.005897 -0.028881
-0.108787 -0.008606 -0.025377
-0.120778 -0.000243 -0.034270
-0.230262 0.081240 0.000544
-0.237295 0.114069 -0.003937
-0.242661 0.103632 0.003838
-0.197976 0.010941 -0.008924
-0.203073 0.004467 -0.001271
-0.213459 0.017324 -0.009803
-0.067891 -0.039162 0.038947
-0.074597 -0.042634 0.039770
-0.071240 -0.035979 0.039801
-0.261876 0.130125 0.006840
-0.261554 0.110590 0.008741
-0.250699 0.106457 0.007616
-0.224090 0.030967 -0.020869
-0.226908 0.024909 -0.007532
-0.041645 0.091629 0.093231
-0.046714 0.104446 0.089198
-0.038337 0.092790 0.088434
-0.085974 -0.022119 0.110814
-0.088074 -0.026564 0.117880
-0.262508 0.076290 0.000164
-0.250065 0.053105 0.000144
-0.247503 0.056401 0.006817
-0.267812 0.073793 -0.024829
-0.258702 0.063354 -0.009655
-0.273399 0.086121 -0.012974
-0.028288 -0.147283 0.018546
-0.033909 -0.135821 0.030402
-0.028979 -0.132797 0.028212
0.078241 -0.006786 -0.017030
0.079364 -0.015261 -0.008531
-0.080171 -0.093842 0.112741
-0.196145 -0.010640 0.006643
-0.195116 -0.015006 0.007354
-0.206467 -0.003468 0.006335
-0.029773 -0.077830 0.049890
-0.037243 -0.066563 0.056869
-0.030012 -0.071395 0.049425
-0.021301 -0.087975 0.042416
-0.029283 -0.085396 0.049185
-0.036105 -0.072890 0.056502
-0.008985 -0.083162 0.032472
0.002322 -0.089363 0.024609
-0.009848 -0.090444 0.033639
-0.020148 -0.095181 0.040516
-0.023544 -0.099017 0.041006
-0.017734 -0.134296 -0.012124
-0.024888 -0.125273 -0.014180
-0.026684 -0.133236 -0.013297
0.013452 -0.085534 0.016356
0.014499 -0.092818 0.016715
-0.023127 -0.138879 -0.012721
0.015264 -0.100702 0.016677
0.001891 -0.098022 0.025276
0.005093 -0.134220 0.007094
-0.004317 -0.138232 0.004651
-0.004377 -0.127790 0.015225
-0.086284 -0.019071 -0.131766
-0.096024 -0.012947 -0.131597
-0.090622 -0.005126 -0.146899
-0.013637 -0.120522 0.022528
-0.017286 -0.118740 0.023390
-0.021874 -0.107515 0.034398
-0.069160 -0.091583 -0.015377
-0.078104 -0.078089 -0.011611
-0.075002 -0.096884 -0.012540
-0.057721 -0.103865 -0.017781
-0.047175 -0.106520 -0.018253
-0.053805 -0.093828 -0.019732
-0.030581 -0.090929 0.047844
-0.024832 -0.104089 0.036243
-0.031871 -0.086984 0.049673
-0.159658 0.240051 -0.052174
-0.146090 0.232404 -0.051151
-0.141250 0.226223 -0.064609
-0.078121 -0.058373 -0.010463
-0.077773 -0.035418 -0.008789
-0.086287 -0.045693 -0.008261
-0.013819 -0.114157 0.028275
-0.053885 -0.010224 0.063630
-0.048422 -0.020440 0.061966
-0.053584 -0.012773 0.064691
-0.052070 -0.023949 0.067230
-0.053956 -0.018253 0.069685
-0.054393 -0.015480 0.068438
-0.036101 -0.037610 0.053275
-0.028251 -0.036540 0.050060
-0.025787 -0.041743 0.046534
-0.054581 -0.011583 0.069463
-0.053487 -0.017970 0.071088
-0.044504 -0.048622 0.062395
-0.038072 -0.054177 0.054996
-0.038465 -0.059611 0.056665
-0.043284 -0.059121 0.066137
-0.041224 -0.063601 0.062299
-0.037176 -0.074886 0.057904
-0.041851 -0.057616 0.066010
-0.046426 -0.045754 0.070453
-0.047323 -0.042372 -0.022256
-0.043037 -0.031954 -0.025331
-0.047593 -0.022533 -0.022724
-0.124205 -0.094279 -0.012384
-0.114076 -0.090346 -0.010641
-0.120940 -0.074920 -0.015935
0.070739 -0.067193 -0.028961
0.083058 -0.059720 -0.022442
0.083167 -0.047166 -0.024384
-0.040447 0.070463 0.114927
-0.056267 0.069170 0.130285
-0.045840 0.077067 0.127717
-0.030894 -0.087404 0.049880
0.053744 -0.096539 -0.023875
0.047296 -0.107871 -0.018128
0.063703 -0.091791 -0.021066
0.093891 -0.039196 -0.013258