# vtk DataFile Version 3.0
3D Unstructured Surface
ASCII
DATASET UNSTRUCTURED_GRID
POINTS 4088 float
18.094376 31.386795 -23.885264
17.845201 31.242353 -23.872872
18.036957 31.196035 -24.029888
18.936608 33.759278 -23.468083
18.996091 33.980483 -23.489638
18.842961 33.950763 -23.376081
15.696291 35.085582 -29.486160
15.709256 35.265825 -29.431917
15.874865 35.179694 -29.558921
18.185602 30.975500 -24.371293
18.008345 31.014893 -24.210361
17.958764 30.855920 -24.378820
16.659088 31.247521 -23.431164
16.462907 31.192773 -23.466955
16.609117 31.087504 -23.585958
15.918925 30.789071 -23.967016
15.837422 30.673292 -24.128172
16.068506 30.688330 -24.059815
15.246212 34.580348 -29.454795
14.995908 34.438275 -29.412689
15.123174 34.610662 -29.392522
14.479091 29.711125 -26.401249
14.242860 29.756363 -26.503373
14.423918 29.601110 -26.680772
15.220404 34.364791 -29.524272
15.184173 34.153611 -29.586383
15.058900 34.271917 -29.499902
18.267363 31.509929 -23.886548
18.292033 31.328699 -24.057158
20.271569 30.333984 -29.930880
20.259944 30.183213 -29.782953
20.097995 30.211558 -29.905040
15.551630 29.364885 -28.321925
15.673968 29.289581 -28.145104
15.475702 29.308445 -28.118035
17.949573 31.484065 -23.719397
17.729399 31.398807 -23.672264
14.649804 29.437669 -27.007600
14.492836 29.455660 -27.129889
14.658085 29.403454 -27.221772
14.521197 30.281231 -29.285962
14.444990 30.132376 -29.155289
14.274672 30.219953 -29.203129
15.578625 29.254272 -27.942698
15.358549 29.286592 -27.945933
14.235029 29.621544 -28.368341
14.510745 29.581760 -28.402109
14.450020 29.525846 -28.207306
14.656188 29.391153 -27.420299
14.849644 29.345333 -27.506972
14.842858 29.355827 -27.288058
15.050077 30.671148 -29.593375
14.847371 30.549742 -29.504705
14.817492 30.755628 -29.604752
14.949517 31.582280 -29.821729
15.042808 31.317668 -29.796705
14.828757 31.365105 -29.779132
15.023619 29.909889 -29.027852
14.925633 29.779057 -28.855353
14.765261 29.926676 -29.001568
17.934266 29.175027 -28.434449
18.130555 29.164992 -28.289066
17.940575 29.146411 -28.196201
14.468366 31.116544 -29.683904
14.495495 31.328108 -29.729713
14.675009 31.257140 -29.740990
14.658076 30.087383 -29.146255
14.496129 29.946022 -28.979297
20.040807 33.669221 -24.270085
20.028356 33.412369 -24.337886
20.215877 33.536828 -24.416364
14.484064 30.466144 -29.406646
14.328955 30.623998 -29.475453
14.608199 30.641374 -29.522786
14.036681 30.323219 -29.241600
14.272093 30.395888 -29.330591
14.091573 30.527440 -29.384894
15.452598 30.185622 -29.349798
15.325946 30.032210 -29.203082
15.207035 30.179679 -29.306460
21.193626 30.567638 -29.411261
21.251932 30.712501 -29.537571
21.354722 30.674476 -29.359933
21.295187 30.863626 -29.651687
21.104311 30.749979 -29.724304
21.099058 30.605396 -29.573178
21.624942 31.146244 -29.555801
21.589112 30.968028 -29.433650
21.465704 31.007096 -29.606171
20.984733 30.877202 -29.914538
21.183582 30.915992 -29.797227
19.734754 32.254113 -30.518414
19.900054 32.107098 -30.519743
19.744165 32.055116 -30.527722
21.759859 31.273825 -29.513089
21.649597 31.335351 -29.658714
19.829826 31.929404 -30.526686
21.480404 31.202196 -29.731921
21.518000 31.406180 -29.808458
20.568920 31.408976 -30.338177
20.782983 31.576976 -30.290643
20.820674 31.318446 -30.213711
20.620525 30.974720 -30.169065
20.756822 31.093002 -30.160407
20.777034 30.894266 -30.048873
18.604002 32.068193 -30.394592
18.834202 32.114015 -30.438290
18.782930 31.923362 -30.426286
19.282534 32.333796 -30.493893
19.093335 32.182622 -30.478513
19.095884 32.409159 -30.470070
20.576229 30.745504 -30.064195
20.796111 30.695981 -29.903003
20.586878 30.558635 -29.928133
18.241968 32.379379 -30.333681
18.441860 32.225930 -30.366999
18.219502 32.143852 -30.325868
20.924522 31.085227 -30.071165
21.149797 30.307852 -27.937232
20.951269 30.247688 -27.798195
20.991329 30.210639 -28.024236
20.911435 30.120552 -28.600947
21.048636 30.199497 -28.570480
20.928017 30.129485 -28.446212
21.576597 30.493407 -28.067183
21.462428 30.426873 -28.326207
21.641158 30.523863 -28.311240
20.787144 30.046503 -28.531525
20.796137 30.064412 -28.749512
21.350573 30.495685 -29.017662
21.179152 30.395529 -29.091998
21.269950 30.521256 -29.217652
21.017791 30.486634 -29.503154
20.815450 30.381314 -29.569219
20.935317 30.574301 -29.693107
20.601685 30.281132 -29.636826
20.710290 30.222676 -29.430668
18.896175 33.284445 -30.427693
18.866153 33.100783 -30.420384
18.697234 33.292123 -30.405486
18.149285 31.303609 -30.245228
18.006521 31.078557 -30.180197
17.942230 31.355516 -30.203783
20.974338 33.032977 -30.252433
20.756821 33.032796 -30.313435
20.847368 33.228563 -30.283943
20.959902 30.720211 -29.812588
20.781813 32.496911 -30.325522
20.736084 32.683494 -30.330913
20.925843 32.651826 -30.275594
21.098780 33.229052 -30.206237
21.227042 33.011635 -30.166960
21.950974 31.543810 -29.477257
22.071924 31.542805 -29.333506
21.917178 31.358058 -29.399256
22.299377 32.251071 -29.417785
22.155363 32.078091 -29.502069
22.146307 32.307041 -29.578554
22.395130 32.033416 -29.188459
22.294475 31.873107 -29.237625
22.299571 32.059257 -29.332705
21.869397 31.685097 -29.623304
22.038919 31.702513 -29.461657
22.233846 31.460318 -29.026861
22.180421 31.550032 -29.188680
22.308354 31.679839 -29.084784
21.973053 32.154018 -29.684348
21.819709 31.934745 -29.747915
21.790294 32.124273 -29.814823
18.669797 32.280621 -30.408228
18.102145 31.531573 -30.259121
18.315917 31.463361 -30.299880
18.341580 31.250646 -30.286614
18.888369 31.477295 -30.429864
18.660805 31.542926 -30.384291
18.817793 31.704443 -30.426309
20.350527 31.907382 -30.457707
20.386699 31.625082 -30.428925
20.201258 31.732228 -30.478985
17.681029 31.741912 -30.203213
17.784524 31.888550 -30.236761
17.825402 31.625781 -30.215885
20.327115 32.496422 -30.436365
20.165578 32.636435 -30.449676
20.333030 32.697743 -30.418996
20.458683 31.236650 -30.329990
20.462308 31.049291 -30.265796
20.288784 31.149450 -30.354321
19.939725 34.194866 -30.453752
20.075172 33.998533 -30.426532
19.812774 33.976446 -30.463272
20.198941 33.813773 -30.403413
20.354529 33.625907 -30.378652
20.131266 33.630730 -30.413824
20.183536 34.208184 -30.409030
20.303133 34.019238 -30.383792
21.318618 31.267839 -29.901215
21.239626 31.485783 -30.037665
21.405805 31.488697 -29.927764
18.982246 31.677647 -24.232309
18.973543 31.477378 -24.399924
19.152941 31.654093 -24.382353
21.217783 35.517742 -24.674953
21.048217 35.448357 -24.514776
21.186878 35.301625 -24.658709
21.703266 36.206251 -25.369953
21.635963 36.049626 -25.221222
21.757622 36.002008 -25.406722
19.464874 32.233631 -24.274215
19.655074 32.342431 -24.395524
19.519089 32.443470 -24.233696
18.058402 32.876160 -30.309752
18.005190 33.090858 -30.312672
18.195867 33.064944 -30.333562
17.834492 33.153699 -30.298631
17.858508 32.973185 -30.289845
17.660943 33.103717 -30.278103
19.884256 31.106445 -25.640881
20.021710 31.040097 -25.829085
20.106197 31.216181 -25.687873
19.815539 32.466699 -24.482400
19.774424 32.239621 -24.551045
19.953542 32.383395 -24.632785
21.543623 37.290044 -28.111479
21.425857 37.408783 -28.286640
21.452266 37.515627 -28.081888
18.109649 37.595322 -30.050541
17.916824 37.455960 -30.083313
17.906548 37.652246 -29.974874
19.659614 30.799005 -25.832751
19.470449 30.647784 -25.874693
19.598582 30.613317 -26.021451
16.091160 35.232444 -29.671746
16.258721 35.305219 -29.757002
16.272678 35.116061 -29.800424
16.357771 30.570198 -29.664172
16.251409 30.443418 -29.592742
16.199710 30.637287 -29.678450
19.338806 32.348294 -24.115601
19.152021 32.261298 -24.002383
19.274052 32.130867 -24.162632
19.900161 35.868605 -30.349665
19.646335 35.903874 -30.438890
19.798748 36.094561 -30.356966
20.510953 36.938485 -29.755458
20.702835 36.825897 -29.644493
20.541369 36.665857 -29.821229
20.391988 34.017996 -24.366979
20.273216 33.749987 -24.383529
20.455782 33.811358 -24.466949
16.730513 29.296726 -26.811321
16.629096 29.237740 -27.023448
16.916636 29.263464 -26.949524
17.056229 29.738612 -25.802457
17.146575 29.657105 -26.014131
17.283881 29.750301 -25.874208
18.505350 33.263329 -30.379894
18.281731 33.230335 -30.351227
18.357672 33.397535 -30.370224
22.598941 31.848363 -28.665952
22.550354 31.981816 -28.897683
22.662914 32.082935 -28.743611
19.931681 31.550878 -25.196737
20.120614 31.665780 -25.243893
20.003200 31.736210 -25.090983
21.303569 37.553875 -28.413633
21.196274 37.740139 -28.436333
21.279258 37.726118 -28.263941
17.982505 29.834010 -26.079800
18.092676 29.764699 -26.259414
18.226396 29.893714 -26.115595
21.522792 37.661812 -26.612367
21.621582 37.477351 -26.606225
21.607131 37.543362 -26.825794
21.575161 36.919121 -25.524750
21.642593 36.750051 -25.536709
21.672810 36.872728 -25.709807
17.206157 34.141963 -30.253686
16.953920 34.256579 -30.180296
17.175146 34.407414 -30.247856
16.408618 31.353872 -23.310604
16.272427 31.234233 -23.421464
20.603937 33.929098 -24.513627
20.560500 34.144071 -24.425152
22.364815 31.129309 -27.806511
22.314961 31.123862 -27.518383
22.211904 30.972279 -27.723547
17.125287 32.475872 -30.172960
16.992685 32.236052 -30.134085
16.848497 32.451907 -30.136927
20.680796 37.051718 -29.576046
20.855556 36.943805 -29.456185
17.534492 30.386072 -24.825844
17.411442 30.444370 -24.664683
17.384194 30.281064 -24.920585
19.115805 31.091157 -24.946250
19.118976 31.218022 -24.794656
18.971086 31.119934 -24.786408
17.874670 34.031651 -30.381659
17.852483 34.282210 -30.402778
18.045832 34.193943 -30.421947
19.373018 31.997089 -24.321270
18.617893 33.086239 -30.389274
14.793647 32.723985 -29.777942
14.634299 32.520268 -29.763296
14.583484 32.744938 -29.730341
21.136333 35.105285 -24.630342
21.049081 35.245589 -24.533740
19.598898 36.509931 -30.355160
19.715883 36.325703 -30.350369
19.488427 36.335946 -30.426780
20.682123 34.645963 -24.360759
20.844301 34.732480 -24.452049
20.736410 34.846372 -24.350903
18.068310 30.142284 -25.577818
18.126807 30.269174 -25.395859
17.887213 30.158448 -25.432421
21.663997 30.719298 -27.396466
21.765671 30.673490 -27.659262
[...]
POINT_DATA 4088
VECTORS Displacement float
-0.029676 0.021305 -0.037836
-0.021601 0.020847 -0.031928
-0.028557 0.025265 -0.032212
-0.030408 0.018822 -0.076517
-0.026491 0.019717 -0.078862
-0.023561 0.019137 -0.080319
0.058209 0.004418 0.040760
0.055944 0.005075 0.039717
0.057335 0.007006 0.039421
-0.035602 0.034100 -0.025307
-0.028245 0.029807 -0.026539
-0.026664 0.033480 -0.021080
0.007912 0.012079 -0.037236
0.013093 0.014227 -0.042045
0.008583 0.016496 -0.037842
0.025375 0.028029 -0.061584
0.026278 0.031108 -0.063928
0.020394 0.029870 -0.055085
0.071488 -0.011348 0.053095
0.081892 -0.021475 0.059289
0.073926 -0.014962 0.056022
0.061709 0.033175 -0.016851
0.070840 0.030037 -0.011327
0.061382 0.030290 -0.006928
0.076096 -0.014391 0.053972
0.080627 -0.017011 0.054083
0.083300 -0.020717 0.057702
-0.036263 0.021171 -0.042852
-0.038633 0.026001 -0.037842
-0.014969 0.031416 0.022080
-0.018344 0.033987 0.023153
-0.015295 0.037242 0.026840
0.055570 0.039715 0.014925
0.051532 0.040819 0.015204
0.053098 0.037155 0.011535
-0.023673 0.016735 -0.038403
-0.017399 0.015393 -0.034136
0.054296 0.029631 -0.002400
0.058964 0.027140 0.001889
0.055315 0.028146 0.000772
0.090403 0.021369 0.002062
0.089010 0.020024 0.000789
0.095428 0.016647 0.001529
0.049375 0.038228 0.011098
0.051751 0.034608 0.008133
0.077971 0.017256 0.009041
0.072055 0.021240 0.005309
0.070480 0.020754 0.007206
0.057012 0.026847 0.002999
0.053756 0.028467 0.002172
0.051842 0.029673 -0.000142
0.082123 0.030552 0.016275
0.086229 0.027158 0.010005
0.089208 0.025072 0.014052
0.091283 0.016120 0.033829
0.086092 0.022732 0.029805
0.094443 0.017495 0.028732
0.073981 0.032211 0.006352
0.072567 0.029543 0.004453
0.078139 0.026424 0.002168
0.018534 0.060473 0.054549
0.012545 0.057808 0.047966
0.016225 0.058089 0.047501
0.106034 0.013556 0.020904
0.108005 0.010692 0.026713
0.099491 0.015960 0.025290
0.083424 0.024317 0.001455
0.083371 0.020978 0.000897
-0.058807 0.006879 -0.058715
-0.066156 0.006431 -0.055514
-0.065877 0.002172 -0.052836
0.094936 0.020056 0.004646
0.102845 0.016002 0.007553
0.094101 0.021626 0.009086
0.105319 0.011881 0.003900
0.099807 0.016112 0.003291
0.109027 0.011860 0.006294
0.071102 0.042078 0.020998
0.071654 0.039490 0.015382
0.074965 0.036521 0.012960
-0.026326 0.005762 0.027161
-0.024732 0.003599 0.030971
-0.028022 0.001124 0.031533
-0.023587 0.001674 0.034087
-0.020911 0.006821 0.028304
-0.023158 0.008104 0.026478
-0.027542 -0.005844 0.043301
-0.028512 -0.004728 0.040250
-0.025704 -0.002596 0.039371
-0.017333 0.008098 0.025638
-0.020782 0.003608 0.031727
-0.009154 0.017287 0.018714
-0.009554 0.015702 0.016343
-0.009465 0.018084 0.017622
-0.028859 -0.008025 0.045489
-0.026997 -0.006851 0.045114
-0.009226 0.017696 0.015986
-0.024804 -0.003896 0.041521
-0.024900 -0.005480 0.043158
-0.010020 0.010324 0.014077
-0.013683 0.005024 0.020743
-0.013274 0.006554 0.020711
-0.010825 0.014180 0.015565
-0.012322 0.010098 0.018507
-0.013634 0.012134 0.019573
-0.011202 0.027207 0.039592
-0.011702 0.025985 0.035290
-0.011830 0.027238 0.038086
-0.009334 0.022304 0.025393
-0.011035 0.024278 0.029713
-0.008984 0.023741 0.028370
-0.012129 0.018296 0.016595
-0.016011 0.014319 0.020603
-0.014878 0.020865 0.018233
-0.005868 0.027121 0.039681
-0.009360 0.027070 0.039899
-0.007302 0.028448 0.043368
-0.015122 0.006973 0.023865
-0.056397 -0.000752 0.009532
-0.062369 0.004712 0.005995
-0.056629 0.005761 0.007436
-0.043635 0.013548 0.010647
-0.043436 0.008303 0.012480
-0.047217 0.011915 0.009412
-0.047697 -0.010207 0.015383
-0.044928 -0.005973 0.017107
-0.043458 -0.009663 0.018940
-0.045944 0.017897 0.008425
-0.040737 0.018588 0.010912
-0.033573 0.000815 0.025362
-0.032052 0.006171 0.021898
-0.029950 0.003544 0.026452
-0.023991 0.011066 0.023354
-0.022450 0.017486 0.019919
-0.020317 0.012499 0.023107
-0.021285 0.024268 0.018926
-0.025590 0.021824 0.017868
0.011025 0.026355 0.028793
0.005947 0.026017 0.028384
0.012266 0.027277 0.029286
0.000115 0.039691 0.058828
0.006679 0.045443 0.066297
0.002870 0.040484 0.060083
-0.021138 0.000423 0.033733
-0.017221 0.003304 0.032035
-0.018468 0.002737 0.033643
-0.018502 0.010389 0.024488
-0.018213 0.001589 0.028722
-0.017584 0.002506 0.029513
-0.020443 -0.000126 0.031794
-0.023280 -0.000552 0.034937
-0.025242 -0.002835 0.035260
-0.030374 -0.010410 0.046357
-0.031924 -0.011505 0.044806
-0.030678 -0.009958 0.045756
-0.032477 -0.013071 0.038085
-0.031563 -0.012091 0.041369
-0.031707 -0.012141 0.039654
-0.033530 -0.013816 0.037359
-0.033175 -0.013107 0.040025
-0.032671 -0.013057 0.039205
-0.029197 -0.009897 0.046504
-0.031019 -0.011213 0.045257
-0.034646 -0.013318 0.039961
-0.033321 -0.012532 0.042480
-0.034254 -0.013539 0.039484
-0.030353 -0.011018 0.042548
-0.028809 -0.009845 0.044915
-0.028894 -0.009773 0.043223
-0.010297 0.026079 0.036328
-0.002545 0.036127 0.054421
-0.004717 0.035439 0.052880
-0.001580 0.038954 0.057314
-0.008569 0.030705 0.041964
-0.008705 0.031574 0.045591
-0.010793 0.028757 0.040009
-0.010927 0.010118 0.014907
-0.009399 0.011618 0.012425
-0.008958 0.013772 0.012185
0.004171 0.036088 0.054813
0.000876 0.033450 0.051361
0.001798 0.036819 0.055685
-0.012215 0.008178 0.022265
-0.009878 0.010465 0.022576
-0.011630 0.008157 0.024796
-0.008483 0.014050 0.011990
-0.008708 0.016209 0.012796
-0.007184 0.018050 0.011421
0.007075 0.014034 0.036752
0.003428 0.013367 0.035932
0.009926 0.016754 0.034972
-0.000441 0.012227 0.034813
-0.005429 0.010193 0.033752
0.000134 0.013170 0.032824
0.000464 0.010816 0.037630
-0.002733 0.010262 0.036892
-0.021818 -0.001739 0.037615
-0.020626 -0.001983 0.035665
-0.023205 -0.004397 0.040564
-0.074746 0.026653 -0.053391
-0.076043 0.031522 -0.045876
-0.084641 0.027807 -0.051547
-0.061083 -0.027642 -0.024647
-0.059017 -0.025057 -0.030824
-0.062278 -0.026025 -0.026991
-0.062366 -0.034451 -0.012847
-0.061963 -0.033326 -0.012778
-0.061922 -0.033508 -0.008878
-0.090074 0.016669 -0.059985
-0.093374 0.013069 -0.055176
-0.086989 0.014630 -0.060604
0.005398 0.026640 0.033052
0.011610 0.026842 0.030572
0.008833 0.026956 0.030662
0.015408 0.026701 0.029831
0.010492 0.026615 0.032045
0.016557 0.026383 0.030203
-0.108856 0.021655 -0.010419
-0.108210 0.016403 -0.006715
-0.110297 0.011219 -0.007827
-0.093139 0.009101 -0.050400
-0.098424 0.011279 -0.048755
-0.096942 0.005805 -0.043415
-0.062523 -0.043344 0.008679
-0.060057 -0.042383 0.012340
-0.061966 -0.044327 0.007088
-0.001149 -0.045022 0.050541
0.006576 -0.041860 0.053913
0.002652 -0.046046 0.049874
-0.099114 0.033495 -0.009549
-0.089849 0.041016 -0.009307
-0.091882 0.037483 -0.008449
0.057540 0.008656 0.039846
0.057579 0.008781 0.041502
0.058422 0.010439 0.039024
0.054029 0.054702 0.056772
0.057291 0.054982 0.052442
0.056790 0.051713 0.051550
-0.082706 0.016806 -0.064099
-0.076021 0.018002 -0.065717
-0.084152 0.019133 -0.062568
-0.012361 -0.011405 0.042365
-0.005935 -0.011374 0.041890
-0.013948 -0.015861 0.043966
-0.042553 -0.032085 0.041458
-0.044935 -0.030397 0.040993
-0.040469 -0.027757 0.043129
-0.058988 -0.001896 -0.053721
-0.061716 0.001213 -0.054171
-0.064082 -0.003458 -0.049851
0.025887 0.054174 0.003421
0.029004 0.052760 0.007248
0.024564 0.055736 0.009224
0.012071 0.053288 -0.005543
0.012425 0.055495 -0.001969
0.008019 0.054499 0.000008
0.012450 0.027571 0.029494
0.012969 0.027465 0.029627
0.017528 0.027965 0.029624
-0.036341 -0.016263 0.029652
-0.035054 -0.015316 0.032983
-0.035514 -0.016435 0.029911
-0.111381 0.015122 -0.022063
-0.110614 0.006620 -0.019007
-0.110200 0.010190 -0.025417
-0.057969 -0.041975 0.014433
-0.056574 -0.042339 0.013333
-0.058558 -0.043418 0.009841
-0.010005 0.055690 0.011600
-0.010876 0.055801 0.014114
-0.018796 0.055286 0.012195
-0.073192 -0.046612 -0.022333
-0.073782 -0.046751 -0.020975
-0.073331 -0.048062 -0.017506
-0.069161 -0.038421 -0.028850
-0.067293 -0.037751 -0.023991
-0.068910 -0.039128 -0.024893
0.045743 0.023337 0.024686
0.049480 0.020821 0.024596
0.050854 0.021586 0.027656
0.015582 0.010328 -0.043696
0.018973 0.013867 -0.047336
-0.064937 -0.007198 -0.046573
-0.061000 -0.006471 -0.049648
-0.042115 -0.018609 0.012511
-0.044261 -0.018962 0.007683
-0.044004 -0.018179 0.011247
0.018913 0.028928 0.041960
0.022015 0.031548 0.046785
0.026703 0.028393 0.042327
-0.046196 -0.033518 0.038946
-0.048256 -0.032305 0.038285
-0.010192 0.039728 -0.007156
-0.007742 0.036330 -0.009917
-0.004894 0.040836 -0.006315
-0.084405 0.041143 -0.026350
-0.085076 0.038378 -0.032344
-0.076886 0.040566 -0.029192
0.038530 0.026549 0.030259
0.043917 0.024490 0.032078
0.040468 0.025557 0.033147
-0.090918 0.020411 -0.058030
0.006507 0.026861 0.029474
0.107153 -0.014585 0.046442
0.114901 -0.014568 0.046396
0.119516 -0.022238 0.049341
-0.063233 -0.024085 -0.030158
-0.060581 -0.023789 -0.032360
-0.016898 -0.024831 0.046560
-0.016283 -0.020803 0.045469
-0.010727 -0.021046 0.045980
-0.058223 -0.012263 -0.048241
-0.061201 -0.016380 -0.042551
-0.057610 -0.015072 -0.046197
-0.021710 0.052316 0.003718
-0.026907 0.050726 -0.000141
-0.016413 0.050352 0.002021
-0.055697 -0.015798 0.010166
-0.050471 -0.015390 0.012162
-0.051314 -0.017158 0.009659
0.028465 0.051546 -0.000191
0.025003 0.053769 -0.002630
0.158217 -0.012357 0.027971
0.163786 -0.015034 0.029781
0.172096 -0.021082 0.033468
0.033603 0.027115 0.027770
0.032117 0.027691 0.029975
0.036963 0.053075 0.068739
0.042568 0.052584 0.065080
0.038430 0.049594 0.064266
0.036832 0.022146 0.036362
0.039433 0.018522 0.036010
0.034544 0.019505 0.035953
0.037710 0.025924 0.034513
0.038120 0.024185 0.035922
0.034967 0.026115 0.035255
0.023057 0.025280 0.029343
0.016956 0.026191 0.031707
0.019393 0.026078 0.033708
0.059645 0.037403 0.012591
0.058279 0.042507 0.018313
-0.061819 0.024283 -0.053190
-0.071825 0.023091 -0.058288
-0.062564 0.019913 -0.060655
0.044211 0.035453 -0.002450
0.041964 0.038151 -0.000580
0.040646 0.038871 -0.005528
-0.061644 -0.032736 -0.017805
-0.060831 -0.032056 -0.022897
-0.060338 -0.030841 -0.021200
-0.038655 -0.031153 0.042977
-0.040263 -0.034359 0.041591
0.008901 0.054847 0.036308
0.010422 0.055892 0.041514
0.004376 0.054253 0.036056
0.038778 -0.002751 0.040223
0.031450 -0.004231 0.039076
0.037711 0.001437 0.037349
0.056902 0.054790 0.035272
0.057833 0.050594 0.028849
0.060756 0.050871 0.029725
-0.057802 0.052502 -0.002023
-0.070346 0.050059 -0.006914
-0.060197 0.051889 -0.005275
-0.083051 0.000957 0.003507
-0.079806 0.004473 0.002735
-0.076864 -0.002428 0.005528
-0.027666 0.054720 0.008670
-0.018554 0.054711 0.009318
0.047964 0.033289 -0.006795
0.047892 0.035320 -0.012620
0.053407 0.031888 -0.007663
0.035331 0.027218 0.032174
-0.029776 -0.034894 0.045012
-0.032095 -0.032524 0.044507
-0.026801 -0.030577 0.045656
-0.036120 -0.039155 -0.005820
-0.034351 -0.038085 -0.008983
-0.037878 -0.039445 -0.004531
-0.053837 -0.007297 -0.054618
-0.053140 -0.010229 -0.053281
-0.048389 -0.004731 -0.060025
0.060012 0.044069 0.045644
0.055293 0.048815 0.051967
0.060424 0.047657 0.045464
0.016414 0.039906 -0.038587
0.019995 0.041215 -0.045093
0.018607 0.043014 -0.037567
0.028848 0.027584 0.028363
-0.082210 0.045715 -0.008793
-0.081862 0.044654 -0.007549
-0.000065 -0.011414 0.041576
0.002085 -0.006527 0.039244
0.008351 -0.007097 0.039024
-0.054006 -0.007218 0.012001
-0.060574 -0.004070 0.009190
0.053699 0.061758 0.062456
0.056381 0.060945 0.056667
0.057591 0.057802 0.053188
-0.034015 -0.029972 0.044204
-0.036601 -0.033635 0.043144
-0.029637 -0.028329 0.044990
-0.022545 -0.025318 0.045778
-0.046940 -0.036057 0.036366
-0.043811 -0.035886 0.038875
-0.070629 -0.044345 0.002404
-0.071131 -0.045485 -0.002315
-0.070346 -0.043925 0.000126
0.043232 0.069373 0.082907
0.046649 0.067126 0.077214
0.041228 0.064916 0.080392
-0.048452 0.015020 -0.066470
-0.056426 0.013961 -0.063211
-0.052855 0.011689 -0.063416
-0.070533 -0.048782 -0.013597
-0.072174 -0.048946 -0.013442
-0.070651 -0.049086 -0.010259
-0.070305 -0.025540 -0.019739
-0.072683 -0.024897 -0.020792
-0.068725 -0.025755 -0.017911
-0.053450 0.008408 -0.061828
-0.048471 0.010298 -0.064956
0.025946 0.026244 0.037940
-0.048313 -0.037463 0.033196
-0.046084 -0.037860 0.034858
0.042155 0.006841 0.036551
0.047293 0.008086 0.037743
0.044107 0.002831 0.038751
0.056413 0.047626 0.024619
0.053722 0.044368 0.020131
0.044573 0.044235 0.015155
0.043176 0.047947 0.019549
0.040706 0.045931 0.013480
-0.058403 -0.026772 -0.028087
-0.055567 -0.023702 -0.034379
-0.098037 0.016818 -0.052612
-0.068300 -0.037344 -0.043395
-0.065926 -0.035825 -0.046322
-0.069022 -0.037039 -0.044442
-0.051337 -0.038542 0.028004
-0.050475 -0.039753 0.024981
-0.052262 -0.039806 0.023517
0.022417 0.043899 0.062527
0.024171 0.047613 0.066611
0.028565 0.045374 0.062994
-0.056389 -0.004696 -0.053921
-0.048630 -0.000570 -0.061369
-0.052124 0.001269 -0.059499
-0.065437 0.028628 -0.047829
-0.058105 -0.028451 -0.026116
-0.055665 -0.025812 -0.030941
-0.037656 0.015984 -0.072098
-0.041216 0.017183 -0.070379
-0.044623 0.014140 -0.067975
0.047127 0.046165 0.019821
-0.065083 -0.047705 -0.004019
-0.063355 -0.046572 0.000207
-0.062457 -0.046834 -0.001991
0.007765 0.055523 0.018608
0.010650 0.055173 0.023860
0.005046 0.054361 0.022696
0.028282 0.060394 0.045529
0.032285 0.060498 0.043392
0.032576 0.062461 0.050502
-0.051787 -0.044849 -0.010691
-0.051133 -0.045262 -0.006958
-0.047759 -0.043855 -0.008432
-0.042043 0.012519 -0.063807
-0.037034 0.012287 -0.058179
-0.046577 0.014727 -0.061406
0.049906 0.048434 0.024203
0.050118 0.044208 0.018794
0.000060 0.022953 0.026084
0.003765 0.022880 0.026513
0.000260 0.021281 0.025266
0.013312 0.059976 0.053703
-0.029674 0.014738 -0.075823
-0.031301 0.016948 -0.075824
-0.025385 0.015631 -0.078232
0.016040 0.042782 0.062185
0.017645 0.046434 0.066466
0.014999 0.052348 -0.010173
0.015772 0.053981 -0.007757
0.033193 0.037663 0.054362
0.038814 0.033809 0.050585
0.031324 0.034317 0.050834
0.052158 0.052560 0.057351
0.049862 0.055798 0.062328
0.025451 -0.010813 0.042761
0.022878 -0.008541 0.040367
-0.005299 -0.049029 0.045075
-0.043410 -0.038869 0.036335
-0.045114 -0.040053 0.032029
0.019586 -0.015676 0.045728
0.011811 -0.020404 0.048048
0.012038 -0.016494 0.045011
0.027723 0.004861 0.034453
0.030394 0.010926 0.034144
0.034526 0.007620 0.034723
-0.024610 0.052989 0.015867
-0.017878 0.052787 0.018194
-0.026513 0.052091 0.015856
-0.081556 -0.021992 -0.016568
-0.080025 -0.022133 -0.013517
-0.074874 -0.023529 -0.015461
-0.011496 -0.024875 0.047377
0.037518 0.005224 0.035859
0.040058 0.009911 0.035521
0.065695 -0.002809 0.043075
0.068928 -0.007262 0.048710
0.062808 0.000465 0.042427
0.078083 0.033708 0.011297
0.075378 0.037151 0.016605
-0.070071 -0.043886 -0.007160
-0.068298 -0.041874 -0.004139
-0.069493 -0.043075 -0.002193
-0.065112 0.032237 -0.042003
-0.070070 0.035352 -0.038253
-0.046996 -0.043988 -0.005275
-0.049539 -0.044738 -0.003269
0.022715 0.052130 -0.014677
0.024397 0.052444 -0.010893
0.022282 0.053531 -0.009899
-0.054675 0.026056 -0.046986
-0.046762 -0.042603 0.008918
-0.046422 -0.042685 0.005432
-0.048682 -0.042772 0.007540
-0.067003 -0.036629 -0.028553
-0.067509 -0.036431 -0.033084
-0.065271 -0.035268 -0.029031
0.013331 0.038409 0.057124
0.018106 0.037859 0.055850
0.013997 0.035343 0.052914
0.015149 0.056631 0.041027
-0.058033 0.035010 -0.034772
-0.050477 0.038250 -0.026593
-0.059707 0.039399 -0.028313
-0.054894 -0.041985 0.014284
-0.052913 -0.041690 0.014903
-0.054366 -0.042603 0.011018
0.024179 0.019316 0.036002
0.019842 0.017537 0.036205
0.020526 0.019181 0.036072
-0.038221 -0.036421 0.041815
-0.037503 -0.039116 0.041028
-0.040958 -0.037541 0.039688
0.034485 0.026240 0.025409
0.028144 0.026959 0.026844
0.028708 0.031194 0.046801
-0.052918 -0.038693 0.026300
-0.054130 -0.039801 0.022439
-0.054324 -0.038347 0.025644
-0.071774 -0.040356 -0.031563
-0.070661 -0.040637 -0.025910
-0.072639 -0.041952 -0.029177
-0.005525 -0.021201 0.046496
0.006726 -0.016616 0.044650
-0.000491 -0.021316 0.047006
0.000552 -0.017878 0.045149
0.074707 0.034724 0.009470
0.027611 0.051172 -0.006199
0.030263 0.049137 -0.004287
0.044210 0.049861 0.061516
0.046789 0.052896 0.062423
0.049718 0.049545 0.057459
-0.037272 -0.009814 -0.060615
-0.030292 -0.004334 -0.070030
-0.036433 -0.008435 -0.060949
-0.002057 -0.025226 0.048851
0.005151 -0.021253 0.047521
-0.033675 -0.004696 -0.069693
-0.035482 -0.007206 -0.063777
-0.031423 -0.003610 -0.071506
0.009369 -0.025105 0.051228
0.008627 -0.028480 0.053594
0.001191 -0.029309 0.051559
-0.058224 -0.040254 0.017832
-0.056062 -0.039837 0.020899
-0.051374 -0.026501 0.032638
-0.054131 -0.027837 0.030613
-0.050593 -0.024581 0.034083
-0.068907 -0.047923 -0.016273
-0.071054 -0.047769 -0.018336
0.046079 0.040829 0.011745
0.042973 0.041588 0.009114
0.046181 0.038267 0.008251
0.035384 0.015414 0.035112
0.036687 0.011912 0.034828
0.025943 0.024444 0.030844
-0.065053 -0.048002 -0.006950
-0.061888 -0.047178 -0.005083
-0.063938 -0.047823 -0.009910
-0.050721 -0.019566 -0.042259
-0.046063 -0.014395 -0.051732
-0.050762 -0.017356 -0.046217
0.023386 0.028243 0.030283
0.019440 0.027752 0.029130
0.031219 0.001522 0.035889
0.023629 0.050751 -0.019191
0.025856 0.050450 -0.016669
0.031513 0.049570 0.002900
0.033420 0.046676 -0.001471
0.076423 0.024262 0.001998
0.074591 0.022187 0.003231
0.081284 0.018927 0.002903
0.020259 -0.006254 0.038553
0.026331 -0.003493 0.037570
-0.100403 0.035765 -0.019914
-0.090106 0.042272 -0.017707
-0.096484 0.038830 -0.015172
0.035150 0.046801 0.004783
-0.058988 -0.030154 -0.024924
-0.059385 -0.030829 -0.027914
-0.056181 -0.027717 -0.029569
-0.049681 0.022278 0.005731
-0.043840 0.025769 0.008415
0.012825 0.026923 0.035569
0.007320 0.027822 0.039149
0.014596 0.027682 0.038508
0.033089 0.024578 0.038189
-0.037611 -0.015504 0.030680
-0.038909 -0.016790 0.024880
-0.038550 -0.015662 0.026898
-0.081366 -0.004317 -0.040544
-0.076355 -0.006607 -0.041095
-0.075941 -0.002055 -0.045152
0.062068 0.039088 0.014279
0.008633 0.020642 0.028808
0.003190 0.020380 0.026166
0.008806 0.023284 0.027934
0.024273 0.034084 0.050449
-0.012495 0.055010 0.016248
-0.024085 0.054124 0.014634
-0.018873 0.055031 0.014307
0.023774 0.063853 0.062416
0.023388 0.065319 0.066777
0.018759 0.062612 0.060409
-0.063210 0.015984 -0.068591
-0.074735 0.016383 -0.066630
-0.068453 0.016042 -0.067130
-0.012874 0.052717 0.019794
-0.005650 0.053514 0.020214
-0.007548 0.052839 0.021574
-0.053520 -0.020060 -0.041185
0.034996 0.027880 0.043731
-0.073020 -0.044881 -0.020906
-0.071720 -0.043787 -0.018901
-0.072097 -0.044946 -0.016365
0.059038 0.058816 0.045875
0.057337 0.059028 0.043842
0.061090 0.054166 0.035908
0.006559 0.051309 -0.002902
-0.071484 -0.019187 -0.029294
-0.069949 -0.017385 -0.033347
-0.070130 -0.015720 -0.035051
0.032128 0.046769 -0.008160
0.029309 0.049055 -0.009680
-0.071014 -0.044522 -0.012031
-0.071636 -0.045796 -0.009351
-0.072404 -0.046086 -0.013786
-0.075469 0.048145 -0.011848
-0.079759 0.047181 -0.010155
-0.085653 0.044759 -0.013485
0.061916 0.054808 0.039425
-0.035866 0.002193 -0.073055
-0.038528 -0.002437 -0.069180
-0.033737 0.000597 -0.074883
0.176247 -0.024844 0.036351
0.160528 -0.014375 0.030056
0.026936 0.050769 -0.011247
0.044458 0.023220 0.034068
0.030915 0.069256 0.074354
0.027244 0.066697 0.068902
0.032439 0.068245 0.070045
-0.099374 0.001844 -0.036078
-0.096524 -0.002415 -0.033239
-0.094853 0.000931 -0.038719
0.049108 0.012657 0.037066
0.044783 0.012201 0.036287
0.047477 0.016722 0.036156
0.064918 0.049723 0.030380
0.063806 0.048569 0.026872
0.012290 0.055311 0.034587
0.006472 0.054064 0.029856
0.013302 0.055392 0.029842
-0.053427 -0.017351 -0.045510
-0.057510 -0.021761 -0.037220
-0.048479 -0.009038 -0.057346
-0.043366 -0.007183 -0.062264
-0.042517 -0.002210 -0.065832
0.021615 0.049117 -0.025189
0.020427 0.051060 -0.018305
0.018629 0.049025 -0.021915
-0.054229 -0.032997 0.029688
-0.055769 -0.033733 0.026190
-0.053591 -0.031291 0.030789
0.011696 0.043475 0.063534
0.008174 0.039037 0.058350
0.006177 0.040814 0.060543
-0.084832 0.001149 -0.044212
-0.087714 -0.004376 -0.037038
0.019406 0.040741 0.059254
-0.088093 0.011660 -0.056237
-0.082919 0.011102 -0.056650
-0.081958 0.013785 -0.061001