# vtk DataFile Version 3.0
3D Unstructured Surface
ASCII
DATASET UNSTRUCTURED_GRID
POINTS 4088 float
18.080383 31.366033 -23.824704
17.827480 31.215187 -23.820967
18.026920 31.167185 -23.971100
18.836069 33.772625 -23.282959
18.885931 33.995904 -23.296517
18.732245 33.969014 -23.192684
15.486238 35.178693 -29.584376
15.495595 35.365128 -29.530619
15.667314 35.270203 -29.656276
18.188260 30.935133 -24.305831
18.002448 30.977488 -24.151276
17.955046 30.810557 -24.320639
16.606684 31.217027 -23.389085
16.403480 31.158701 -23.415644
16.557689 31.052755 -23.546549
15.851532 30.735249 -23.881570
15.772957 30.614484 -24.038785
16.009965 30.633401 -23.987924
15.045231 34.672664 -29.563193
14.800135 34.533748 -29.529635
14.921934 34.707645 -29.504312
14.414037 29.620022 -26.368456
14.173345 29.671725 -26.472093
14.360456 29.512094 -26.660150
15.025414 34.450752 -29.633255
14.995413 34.232480 -29.694651
14.866960 34.359760 -29.614695
18.255786 31.494575 -23.818851
18.287954 31.306272 -23.990164
20.403564 30.270211 -30.026555
20.392108 30.108683 -29.872670
20.221672 30.127205 -30.011022
15.489915 29.234558 -28.373899
15.617529 29.161508 -28.195158
15.417155 29.185269 -28.163058
17.927694 31.465866 -23.662543
17.704162 31.376609 -23.623091
14.591163 29.343746 -27.003626
14.431199 29.365568 -27.125647
14.598501 29.308693 -27.224208
14.421828 30.180579 -29.297301
14.349438 30.033326 -29.162089
14.175935 30.131133 -29.202886
15.524743 29.133408 -27.985096
15.301499 29.169694 -27.984212
14.157907 29.535671 -28.367815
14.434660 29.481966 -28.414218
14.376870 29.430936 -28.216243
14.594958 29.295323 -27.427438
14.790677 29.244303 -27.521941
14.785826 29.256578 -27.297202
14.947483 30.559779 -29.634197
14.744598 30.441595 -29.534856
14.710249 30.656148 -29.636871
14.827237 31.517615 -29.883804
14.927701 31.236109 -29.851121
14.709187 31.292463 -29.831877
14.937018 29.780762 -29.069177
14.842516 29.654723 -28.890909
14.676807 29.809228 -29.027345
17.926596 29.023944 -28.507396
18.132019 29.020462 -28.347962
17.935684 29.002643 -28.253741
14.348664 31.044657 -29.720257
14.371475 31.264553 -29.777106
14.555323 31.184201 -29.787006
14.564604 29.976609 -29.164835
14.406392 29.842792 -28.989153
20.005720 33.688470 -24.045270
20.002195 33.428255 -24.126498
20.202514 33.560356 -24.198228
14.379692 30.371515 -29.418851
14.219209 30.540756 -29.486783
14.500876 30.546287 -29.543973
13.933760 30.248256 -29.235967
14.168093 30.310024 -29.333298
13.982465 30.453026 -29.387017
15.364095 30.045184 -29.412531
15.239006 29.893062 -29.260430
15.115586 30.047011 -29.356724
21.329151 30.592417 -29.412715
21.384021 30.745118 -29.539641
21.483370 30.712114 -29.352494
21.423301 30.902949 -29.655358
21.239583 30.774937 -29.740631
21.236974 30.624597 -29.585242
21.737686 31.204145 -29.550427
21.705147 31.021805 -29.423123
21.585786 31.057334 -29.603399
21.118341 30.900623 -29.944843
21.313218 30.951456 -29.811114
19.757035 32.284446 -30.578058
19.938246 32.138568 -30.582423
19.776980 32.081829 -30.591986
21.867041 31.336631 -29.508062
21.759418 31.396721 -29.659954
19.873337 31.955402 -30.594714
21.596477 31.256986 -29.735234
21.629525 31.465476 -29.817773
20.673645 31.439951 -30.400105
20.885860 31.620198 -30.340071
20.936016 31.354269 -30.260565
20.747447 30.983510 -30.233633
20.881300 31.115674 -30.212478
20.909875 30.906701 -30.099196
18.582873 32.060916 -30.457106
18.821251 32.116884 -30.500466
18.776346 31.915340 -30.493289
19.278699 32.356637 -30.551569
19.088651 32.196111 -30.539388
19.079532 32.429924 -30.526898
20.710789 30.735508 -30.134329
20.935463 30.697753 -29.949472
20.726704 30.535712 -29.995640
18.189973 32.374053 -30.389487
18.406078 32.220422 -30.425887
18.177749 32.126207 -30.385921
21.050842 31.115211 -30.109340
21.277140 30.333910 -27.903850
21.084041 30.258990 -27.760893
21.124699 30.221501 -27.993247
21.049905 30.114403 -28.590462
21.184397 30.208401 -28.554413
21.065392 30.127170 -28.429594
21.684522 30.542102 -28.034677
21.579137 30.469506 -28.297224
21.748258 30.574145 -28.280613
20.925810 30.027023 -28.522734
20.936078 30.043340 -28.749760
21.478997 30.530156 -29.002275
21.314850 30.415651 -29.085281
21.402616 30.550469 -29.210033
21.158711 30.495256 -29.518690
20.959549 30.367450 -29.603395
21.076597 30.579883 -29.721318
20.744744 30.241948 -29.692473
20.854237 30.191913 -29.467708
18.826941 33.318331 -30.497149
18.803367 33.131351 -30.483518
18.617803 33.322872 -30.473307
18.132153 31.229039 -30.329072
17.986272 30.981404 -30.273404
17.914066 31.276748 -30.285031
21.049008 33.092635 -30.320849
20.817078 33.088766 -30.386430
20.911779 33.289117 -30.357269
21.098069 30.734596 -29.842259
20.852919 32.548685 -30.387684
20.800561 32.735432 -30.397462
21.002077 32.707086 -30.339305
21.179600 33.293363 -30.272060
21.316484 33.075116 -30.228317
22.052707 31.612174 -29.479031
22.170445 31.612078 -29.332833
22.019205 31.424308 -29.393663
22.401502 32.321782 -29.436457
22.258383 32.149327 -29.520120
22.252445 32.378014 -29.602776
22.491322 32.103820 -29.199342
22.391217 31.944014 -29.245755
22.399046 32.130294 -29.346573
21.973409 31.753551 -29.633216
22.139810 31.772619 -29.468446
22.325865 31.528996 -29.020193
22.275716 31.619612 -29.186482
22.401406 31.749819 -29.085671
22.079339 32.224438 -29.709686
21.925194 32.003533 -29.769715
21.896703 32.192861 -29.844469
18.641318 32.285217 -30.466726
18.077306 31.471584 -30.334426
18.303166 31.407391 -30.378394
18.334937 31.180086 -30.373937
18.903102 31.446913 -30.514553
18.662493 31.507305 -30.462995
18.821538 31.685601 -30.500780
20.421454 31.946593 -30.520087
20.473365 31.658638 -30.495429
20.273796 31.763657 -30.548449
17.630653 31.681106 -30.272481
17.733793 31.840519 -30.302469
17.784995 31.561926 -30.288099
20.371578 32.539756 -30.499370
20.194934 32.678086 -30.513991
20.371137 32.742603 -30.486136
20.568215 31.254591 -30.402147
20.581010 31.055119 -30.342116
20.395407 31.154411 -30.439361
19.925988 34.266505 -30.546688
20.072587 34.066751 -30.519549
19.789782 34.039875 -30.557664
20.207483 33.878678 -30.495069
20.377313 33.688001 -30.466811
20.135952 33.689607 -30.504364
20.188576 34.283547 -30.497855
20.318584 34.091136 -30.472671
21.436208 31.318951 -29.915459
21.351621 31.539198 -30.062668
21.517058 31.546430 -29.945111
18.998510 31.671170 -24.135453
18.998743 31.463092 -24.307841
19.179087 31.647830 -24.281380
21.256848 35.607979 -24.538574
21.077021 35.535448 -24.361876
21.229762 35.391402 -24.511799
21.750856 36.289064 -25.280996
21.683918 36.135591 -25.126732
21.811338 36.087850 -25.317588
19.473116 32.241199 -24.146583
19.664863 32.351805 -24.259245
19.516733 32.452231 -24.094508
17.973032 32.884800 -30.360960
17.906651 33.104741 -30.365468
18.105764 33.081932 -30.387990
17.726989 33.166178 -30.351075
17.760904 32.980631 -30.340514
17.550545 33.111755 -30.329226
19.979000 31.090280 -25.528679
20.125140 31.027274 -25.718777
20.202252 31.215263 -25.579816
19.825173 32.477601 -24.336533
19.795755 32.249733 -24.418097
19.974694 32.395994 -24.490208
21.546213 37.355817 -28.052380
21.423743 37.472387 -28.228924
21.449118 37.577513 -28.023063
18.049130 37.714376 -30.082610
17.844406 37.581184 -30.130459
17.833105 37.775660 -30.010351
19.758869 30.753029 -25.718197
19.564459 30.583296 -25.762227
19.700654 30.551618 -25.908708
15.889967 35.317728 -29.767703
16.063817 35.388262 -29.852512
16.078761 35.190545 -29.890945
16.281116 30.419956 -29.758866
16.173498 30.289344 -29.687199
16.118509 30.493229 -29.765749
19.334927 32.355941 -23.984258
19.145798 32.267478 -23.877882
19.280291 32.136253 -24.042462
19.888698 35.962732 -30.377114
19.621123 35.993995 -30.469101
19.783932 36.187237 -30.377276
20.516015 37.023547 -29.734417
20.709612 36.909828 -29.620888
20.548728 36.755117 -29.807287
20.383883 34.057014 -24.135506
20.259080 33.779125 -24.156732
20.459329 33.849626 -24.243833
16.708142 29.176132 -26.811677
16.602514 29.114699 -27.035279
16.896834 29.139507 -26.953535
17.043267 29.637534 -25.771613
17.135919 29.549477 -25.984875
17.275906 29.646510 -25.842879
18.418273 33.290270 -30.444178
18.186696 33.252630 -30.410972
18.258185 33.424233 -30.437189
22.682624 31.914643 -28.667779
22.639367 32.049916 -28.904025
22.748518 32.148889 -28.750247
20.001283 31.554273 -25.085283
20.189992 31.676997 -25.132229
20.064249 31.745385 -24.976406
21.298500 37.615334 -28.357313
21.189857 37.799352 -28.381708
21.272545 37.785182 -28.208093
17.996370 29.724254 -26.038063
18.110864 29.651267 -26.219418
18.251126 29.784047 -26.066196
21.521177 37.721574 -26.542814
21.628330 37.539911 -26.535986
21.610373 37.604668 -26.758366
21.602837 36.992205 -25.437496
21.677005 36.824753 -25.450413
21.704846 36.945122 -25.626344
17.045348 34.170292 -30.322326
16.785511 34.289009 -30.247184
17.008797 34.442019 -30.323079
16.343763 31.322075 -23.247266
16.204029 31.198221 -23.353610
20.620620 33.976559 -24.294909
20.568365 34.193316 -24.199830
22.438742 31.187928 -27.782129
22.388656 31.180000 -27.490870
22.289147 31.030173 -27.693916
17.027411 32.446731 -30.230690
16.899552 32.191246 -30.196176
16.743736 32.418333 -30.196058
20.685185 37.131619 -29.546103
20.860956 37.023060 -29.424228
17.525004 30.319827 -24.785824
17.397464 30.382243 -24.625808
17.372002 30.210392 -24.884469
19.167759 31.055332 -24.850236
19.164908 31.190661 -24.699629
19.012622 31.085548 -24.695812
17.735506 34.061739 -30.465038
17.708474 34.317474 -30.494275
17.910894 34.229920 -30.515875
19.391196 32.001144 -24.204833
18.544319 33.112106 -30.449602
14.642053 32.733995 -29.872470
14.486031 32.521393 -29.855485
14.429993 32.761833 -29.827832
21.180771 35.193025 -24.471638
21.083072 35.331672 -24.372792
19.580277 36.601844 -30.368348
19.699807 36.417707 -30.365321
19.461150 36.425653 -30.445003
20.694145 34.710003 -24.147481
20.871383 34.805197 -24.254245
20.750437 34.916404 -24.147924
18.084308 30.049394 -25.523238
18.143933 30.183514 -25.335940
17.894574 30.071083 -25.384868
21.761212 30.771661 -27.357541
21.860358 30.727767 -27.623289
[...]
POINT_DATA 4088
VECTORS Displacement float
-0.015683 0.042067 -0.098396
-0.003880 0.048013 -0.083833
-0.018520 0.054115 -0.091000
0.070131 0.005475 -0.261641
0.083669 0.004296 -0.271983
0.087155 0.000886 -0.263716
0.268262 -0.088693 0.138976
0.269605 -0.094228 0.138419
0.264886 -0.083503 0.136776
-0.038260 0.074467 -0.090769
-0.022348 0.067212 -0.085624
-0.022946 0.078843 -0.079261
0.060316 0.042573 -0.079315
0.072520 0.048299 -0.093356
0.060011 0.051245 -0.077251
0.092768 0.081851 -0.147030
0.090743 0.089916 -0.153315
0.078935 0.084799 -0.126976
0.272469 -0.103664 0.161493
0.277665 -0.116948 0.176235
0.275166 -0.111945 0.167812
0.126763 0.124278 -0.049644
0.140355 0.114675 -0.042607
0.124844 0.119306 -0.027550
0.271086 -0.100352 0.162955
0.269387 -0.095880 0.162351
0.275240 -0.108560 0.172495
-0.024686 0.036525 -0.110549
-0.034554 0.048428 -0.104836
-0.146964 0.095189 0.117755
-0.150508 0.108517 0.112870
-0.138972 0.121595 0.132822
0.117285 0.170042 0.066899
0.107971 0.168892 0.065258
0.111645 0.160331 0.056558
-0.001794 0.034934 -0.095257
0.007838 0.037591 -0.083309
0.112937 0.123554 -0.006374
0.120601 0.117232 -0.002353
0.114899 0.122907 0.003208
0.189772 0.122021 0.013401
0.184562 0.119074 0.007589
0.194165 0.105467 0.001286
0.103257 0.159092 0.053496
0.108801 0.151506 0.046412
0.155093 0.103129 0.008515
0.148140 0.121034 0.017418
0.143630 0.115664 0.016143
0.118242 0.122677 0.010138
0.112723 0.129497 0.017141
0.108874 0.128922 0.009002
0.184717 0.141921 0.057097
0.189002 0.135305 0.040156
0.196451 0.124552 0.046171
0.213563 0.080785 0.095904
0.201199 0.104291 0.084221
0.214013 0.090137 0.081477
0.160582 0.161338 0.047677
0.155684 0.153877 0.040009
0.166593 0.143872 0.027945
0.026204 0.211556 0.127496
0.011081 0.202338 0.106862
0.021116 0.201857 0.105041
0.225736 0.085443 0.057257
0.232025 0.074247 0.074106
0.219177 0.088899 0.071306
0.176896 0.135091 0.020035
0.173108 0.124208 0.010753
-0.023720 -0.012370 -0.283530
-0.039995 -0.009455 -0.266902
-0.052514 -0.021356 -0.270972
0.199308 0.114685 0.016851
0.212591 0.099244 0.018883
0.201424 0.116713 0.030273
0.208240 0.086844 -0.001733
0.203807 0.101976 0.005998
0.218135 0.086274 0.008417
0.159605 0.182516 0.083731
0.158594 0.178638 0.072730
0.166414 0.169189 0.063224
-0.161851 -0.019017 0.028615
-0.156821 -0.029018 0.033041
-0.156670 -0.036514 0.024094
-0.151701 -0.037649 0.037758
-0.156183 -0.018137 0.044631
-0.161074 -0.011097 0.038542
-0.140286 -0.063745 0.037927
-0.144547 -0.058505 0.029723
-0.145786 -0.052834 0.036599
-0.150941 -0.015323 0.055943
-0.150418 -0.031856 0.045614
-0.031435 -0.013046 0.078358
-0.047746 -0.015768 0.079023
-0.042280 -0.008629 0.081886
-0.136041 -0.070831 0.040462
-0.136818 -0.068221 0.046354
-0.052737 -0.008302 0.084014
-0.140877 -0.058686 0.044834
-0.136425 -0.064776 0.052473
-0.114745 -0.020651 0.076005
-0.116560 -0.038198 0.070171
-0.128616 -0.029269 0.067565
-0.137747 0.005390 0.080133
-0.136800 -0.012574 0.070578
-0.146475 -0.000301 0.069896
0.009927 0.034484 0.102106
0.001249 0.023116 0.097466
-0.005246 0.035260 0.105089
-0.005499 -0.000537 0.083069
-0.006351 0.010789 0.090588
0.007368 0.002976 0.085198
-0.146689 0.028292 0.086729
-0.155363 0.012547 0.067072
-0.154704 0.043788 0.085740
0.046127 0.032447 0.095487
0.026422 0.032578 0.098787
0.034451 0.046093 0.103421
-0.141442 -0.023011 0.062040
-0.183740 -0.026810 -0.023850
-0.195141 -0.006590 -0.031307
-0.189999 -0.005101 -0.023553
-0.182105 0.019697 0.000162
-0.179197 -0.000601 -0.003587
-0.184592 0.014230 -0.007206
-0.155622 -0.058902 -0.017123
-0.161637 -0.048606 -0.011876
-0.150558 -0.059945 -0.011687
-0.184610 0.037377 -0.000366
-0.180678 0.039660 0.011160
-0.161997 -0.033656 0.009975
-0.167750 -0.013951 0.015181
-0.162616 -0.025669 0.018833
-0.164911 0.002444 0.038890
-0.166549 0.031350 0.054095
-0.161597 0.006917 0.051318
-0.164344 0.063452 0.074573
-0.169537 0.052587 0.054908
0.080259 -0.007531 0.098249
0.068733 -0.004551 0.091518
0.091697 -0.003472 0.097107
0.017247 0.114261 0.142672
0.026928 0.142596 0.159504
0.031034 0.119252 0.141331
-0.095808 -0.059235 0.102149
-0.077478 -0.052666 0.105030
-0.082879 -0.057817 0.106969
-0.156669 -0.003996 0.054159
-0.089319 -0.050185 0.090884
-0.082061 -0.049432 0.096062
-0.096677 -0.055386 0.095505
-0.104100 -0.064863 0.100760
-0.114684 -0.066316 0.096617
-0.132107 -0.078774 0.048131
-0.130445 -0.080778 0.044133
-0.132705 -0.076208 0.040163
-0.134602 -0.083782 0.056757
-0.134583 -0.083327 0.059420
-0.137845 -0.083114 0.063876
-0.129722 -0.084220 0.048242
-0.129917 -0.084014 0.048155
-0.132146 -0.084094 0.053073
-0.133209 -0.078351 0.056416
-0.131910 -0.081319 0.052046
-0.126665 -0.081996 0.033293
-0.128616 -0.082112 0.040282
-0.127306 -0.083519 0.040371
-0.136639 -0.081438 0.067886
-0.134294 -0.078633 0.066715
-0.135303 -0.078361 0.072869
0.018182 0.021483 0.094826
0.022294 0.096116 0.129726
0.008034 0.091409 0.131394
0.005063 0.109514 0.144637
-0.023302 0.061087 0.126653
-0.010393 0.067195 0.124295
-0.014538 0.047599 0.114480
-0.081854 -0.029093 0.077287
-0.096065 -0.021938 0.078929
-0.081496 -0.017657 0.081649
0.054547 0.096894 0.124081
0.051607 0.081481 0.117069
0.042205 0.100674 0.127899
-0.056678 -0.035156 0.085270
-0.039234 -0.031186 0.086891
-0.049737 -0.036703 0.091936
-0.118015 -0.003891 0.084147
-0.127410 0.010381 0.089116
-0.113807 0.013089 0.096461
0.020812 -0.057605 0.129688
0.006013 -0.054851 0.128949
0.032918 -0.046675 0.129364
-0.008983 -0.052678 0.126469
-0.028213 -0.051901 0.121911
-0.004552 -0.045707 0.123364
-0.004576 -0.064547 0.126455
-0.018184 -0.061636 0.125771
-0.139408 -0.052851 0.051859
-0.132621 -0.055398 0.060668
-0.134458 -0.062130 0.057911
-0.091010 0.033130 -0.150247
-0.101243 0.045808 -0.137959
-0.110787 0.034070 -0.152520
-0.100148 -0.117879 -0.161026
-0.087821 -0.112148 -0.183724
-0.105162 -0.115802 -0.173901
-0.109956 -0.117264 -0.101804
-0.109918 -0.119291 -0.107268
-0.115638 -0.119350 -0.098012
-0.098316 0.009101 -0.187617
-0.103163 0.003695 -0.191455
-0.084633 0.005869 -0.199792
0.090768 0.018000 0.084260
0.110149 0.012959 0.083368
0.098936 0.009968 0.085090
0.122911 0.014222 0.082275
0.108096 0.019169 0.082714
0.126955 0.018345 0.081326
-0.203600 0.037820 -0.122621
-0.211640 0.029226 -0.117023
-0.206352 0.012137 -0.115884
-0.102773 -0.001801 -0.196267
-0.119755 0.001167 -0.181703
-0.118094 -0.006794 -0.185992
-0.065113 -0.109117 -0.050420
-0.057943 -0.105987 -0.045376
-0.058818 -0.106213 -0.051737
0.059370 -0.164076 0.082610
0.078994 -0.167084 0.101059
0.076095 -0.169460 0.085351
-0.198369 0.079471 -0.124103
-0.183859 0.105504 -0.121773
-0.193954 0.099182 -0.121192
0.258733 -0.076628 0.135803
0.252483 -0.074262 0.137012
0.252339 -0.064045 0.129545
0.130684 0.204944 0.151466
0.135202 0.209056 0.146899
0.137991 0.195771 0.138849
-0.078827 0.009159 -0.195442
-0.069798 0.011822 -0.190218
-0.090391 0.013747 -0.182738
-0.000898 -0.105532 0.069814
0.019277 -0.101495 0.072101
0.000868 -0.108537 0.064276
-0.047615 -0.117147 0.020417
-0.051712 -0.114328 0.017388
-0.047828 -0.117017 0.029187
-0.050883 -0.040914 -0.285194
-0.047580 -0.027925 -0.280968
-0.067629 -0.041726 -0.272967
0.048258 0.174768 0.003777
0.055586 0.175801 0.019079
0.044366 0.179693 0.013235
0.025033 0.154366 -0.036387
0.023081 0.163123 -0.031225
0.015994 0.158290 -0.031321
0.099527 0.000630 0.093778
0.108004 0.005170 0.089372
0.117015 0.001267 0.096589
-0.120024 -0.082543 0.031479
-0.124067 -0.083416 0.039325
-0.121118 -0.082389 0.036547
-0.180983 0.011727 -0.133517
-0.179992 -0.004597 -0.130671
-0.171249 0.001015 -0.139994
-0.052900 -0.103434 -0.041887
-0.050157 -0.101552 -0.041292
-0.051845 -0.102482 -0.046007
-0.023870 0.165446 -0.030137
-0.029064 0.169233 -0.025882
-0.043526 0.164953 -0.037204
-0.071577 -0.106374 -0.091886
-0.080530 -0.109311 -0.091214
-0.076573 -0.109368 -0.084934
-0.096837 -0.111505 -0.116104
-0.101705 -0.112453 -0.110287
-0.100946 -0.111522 -0.108356
0.206552 -0.004992 0.093326
0.217889 -0.011609 0.091484
0.217203 -0.013019 0.102879
0.080437 0.042125 -0.107034
0.087371 0.049879 -0.115190
-0.081620 -0.054659 -0.265291
-0.068865 -0.055716 -0.274970
-0.116042 -0.077228 -0.011871
-0.117956 -0.075100 -0.019830
-0.121247 -0.076073 -0.018384
0.116789 0.058069 0.099690
0.115148 0.076354 0.108876
0.131464 0.061967 0.101458
-0.050585 -0.113419 0.009003
-0.053656 -0.111560 0.006328
-0.000704 0.105973 -0.047176
0.006236 0.098457 -0.048792
0.007298 0.111508 -0.042431
-0.136359 0.076968 -0.122364
-0.131008 0.065739 -0.127371
-0.118422 0.074952 -0.119788
0.177694 -0.003539 0.113638
0.187926 -0.010774 0.123575
0.175406 -0.010420 0.127075
-0.109096 0.016356 -0.174467
0.080081 0.000994 0.089802
0.258747 -0.024595 0.140970
0.263169 -0.015693 0.138585
0.273007 -0.039133 0.146832
-0.107671 -0.111825 -0.188862
-0.094572 -0.109872 -0.193308
0.001723 -0.116744 0.059748
-0.000207 -0.112807 0.060421
0.016550 -0.110753 0.064203
-0.070245 -0.076303 -0.261519
-0.088283 -0.089097 -0.240355
-0.071637 -0.085104 -0.249176
-0.037708 0.145206 -0.050862
-0.044033 0.136386 -0.060060
-0.023774 0.137717 -0.045532
-0.152912 -0.068161 -0.028759
-0.145158 -0.069667 -0.023811
-0.139941 -0.072098 -0.027128
0.055172 0.169756 0.002309
0.047127 0.170358 -0.011001
0.284320 0.018137 0.051153
0.288451 0.010309 0.054907
0.305569 0.002602 0.070643
0.169922 0.002247 0.099136
0.160711 -0.000424 0.107931
0.101844 0.187144 0.163581
0.113607 0.188264 0.157509
0.110209 0.173277 0.151146
0.143762 -0.030498 0.138794
0.149360 -0.039553 0.137437
0.130303 -0.040460 0.135239
0.162207 -0.013003 0.131683
0.155285 -0.021415 0.137868
0.149107 -0.015600 0.133412
0.143991 0.021501 0.080329
0.126940 0.024688 0.082472
0.130086 0.032624 0.085670
0.126870 0.168002 0.063024
0.123865 0.180308 0.077454
-0.066363 0.031086 -0.143375
-0.079288 0.024855 -0.159888
-0.057563 0.019509 -0.163549
0.093366 0.141069 0.012043
0.087937 0.147362 0.018371
0.085685 0.145857 0.003733
-0.100677 -0.119115 -0.120997
-0.088635 -0.118067 -0.134106
-0.093532 -0.118989 -0.137010
-0.042785 -0.120150 0.029672
-0.043415 -0.120718 0.022559
0.003680 0.188144 0.068101
0.006671 0.193813 0.085604
-0.008361 0.186737 0.067788
0.146519 -0.089343 0.122040
0.126429 -0.089793 0.111314
0.141991 -0.079382 0.120085
0.122296 0.213898 0.121513
0.123793 0.202395 0.104985
0.131544 0.205219 0.108549
-0.121019 0.147539 -0.093066
-0.141968 0.133583 -0.107392
-0.118890 0.138922 -0.097941
-0.214339 -0.009602 -0.061551
-0.213223 -0.000068 -0.057910
-0.205742 -0.023025 -0.049836
-0.059551 0.159973 -0.051601
-0.038744 0.159256 -0.041718
0.101603 0.132598 -0.008531
0.101914 0.134505 -0.026003
0.111632 0.126508 -0.019981
0.163508 -0.005552 0.120116
-0.024333 -0.128048 0.043905
-0.030427 -0.124969 0.040992
-0.020109 -0.124116 0.049612
-0.028770 -0.101037 -0.052042
-0.025246 -0.098700 -0.054538
-0.030845 -0.097673 -0.051713
-0.045970 -0.061466 -0.282070
-0.047409 -0.070890 -0.272390
-0.021748 -0.055235 -0.292759
0.151019 0.167616 0.119161
0.139173 0.182615 0.134135
0.147303 0.183174 0.123814
0.052575 0.113756 -0.096185
0.059078 0.118633 -0.111054
0.052473 0.124087 -0.094588
0.156222 0.003377 0.097264
-0.167307 0.119641 -0.117220
-0.173654 0.122277 -0.116164
0.038222 -0.098151 0.074753
0.037756 -0.094081 0.080806
0.059193 -0.091393 0.083291
-0.171111 -0.047610 -0.022157
-0.184599 -0.035380 -0.028562
0.123085 0.230472 0.174504
0.127681 0.230172 0.165592
0.132621 0.220043 0.154263
-0.035607 -0.122066 0.038866
-0.038138 -0.123478 0.031648
-0.027897 -0.121749 0.046050
-0.013318 -0.118539 0.054684
-0.049473 -0.112533 0.000445
-0.046945 -0.117133 0.010256
-0.120554 -0.124030 -0.061995
-0.115499 -0.122891 -0.068686
-0.122717 -0.123633 -0.066811
0.095042 0.248137 0.216523
0.104971 0.243115 0.204580
0.095336 0.233155 0.204590
0.022685 0.004964 -0.281953
0.001666 0.005136 -0.269680
0.003549 -0.001899 -0.285560
-0.062858 -0.105605 -0.075878
-0.072218 -0.109240 -0.078134
-0.067982 -0.108508 -0.072957
-0.160126 -0.086551 -0.121288
-0.156280 -0.079466 -0.125339
-0.159611 -0.084050 -0.108635
-0.007404 -0.011017 -0.291888
0.009723 -0.008176 -0.297178
0.137095 0.046977 0.093658
-0.049354 -0.110072 -0.008550
-0.047918 -0.113895 -0.002872
0.155111 -0.067088 0.127920
0.173120 -0.062685 0.133469
0.161595 -0.076634 0.128525
0.119813 0.192795 0.092897
0.113100 0.181148 0.079347
0.092295 0.171429 0.060392
0.089110 0.181151 0.069789
0.083588 0.172085 0.052759
-0.084866 -0.114927 -0.169653
-0.069674 -0.108726 -0.192874
-0.122235 0.009948 -0.175105
-0.055525 -0.106493 -0.129475
-0.047761 -0.108652 -0.135906
-0.060223 -0.108362 -0.133575
-0.049633 -0.105222 -0.020548
-0.048570 -0.104522 -0.024770
-0.048924 -0.102975 -0.027736
0.086712 0.140172 0.141011
0.082745 0.158148 0.152306
0.097718 0.149377 0.143318
-0.050246 -0.052144 -0.285598
-0.016276 -0.042011 -0.300847
-0.023641 -0.034520 -0.298466
-0.079157 0.041335 -0.135019
-0.081182 -0.116455 -0.156717
-0.068814 -0.112683 -0.176138
0.051339 0.002140 -0.296666
0.045052 0.007249 -0.283983
0.029423 0.000843 -0.292936
0.098027 0.179938 0.073977
-0.056149 -0.104224 -0.061052
-0.055875 -0.104386 -0.057017
-0.052571 -0.102428 -0.056024
0.004530 0.178690 0.010489
0.010102 0.181393 0.029403
-0.002901 0.178464 0.020947
0.052105 0.205796 0.107846
0.062271 0.207023 0.108047
0.062801 0.214439 0.126542
-0.033995 -0.093910 -0.058189
-0.036538 -0.094685 -0.052754
-0.031827 -0.094641 -0.057121
-0.005629 0.007813 -0.181810
-0.005269 0.011438 -0.157526
-0.021592 0.012421 -0.167255
0.104484 0.189290 0.087297
0.104766 0.177172 0.073522
0.036935 -0.010019 0.086360
0.045818 -0.013030 0.091744
0.030282 -0.014269 0.087543
0.011798 0.211204 0.125761
0.055556 -0.000240 -0.239721
0.060231 0.003064 -0.249403
0.069388 -0.002190 -0.244590
0.072559 0.133179 0.140011
0.067636 0.150922 0.151977
0.031604 0.151937 -0.041279
0.031119 0.158349 -0.036942
0.121799 0.115090 0.124991
0.137733 0.101115 0.118767
0.125245 0.097387 0.117871
0.130117 0.194995 0.147687
0.122687 0.205835 0.160624
0.113812 -0.101186 0.105492
0.105191 -0.094405 0.099355
0.055477 -0.165499 0.065138
-0.045204 -0.118955 0.003433
-0.046317 -0.115843 -0.008122
0.100862 -0.108762 0.100147
0.082330 -0.114450 0.091519
0.080971 -0.104732 0.087283
0.107621 -0.073144 0.109008
0.112891 -0.062187 0.118562
0.128864 -0.067016 0.118988
-0.066868 0.166700 -0.028899
-0.053954 0.168544 -0.014647
-0.074402 0.165691 -0.026268
-0.155627 -0.061271 -0.115469
-0.157403 -0.061482 -0.102757
-0.154677 -0.066994 -0.101927
0.017581 -0.115750 0.064230
0.139913 -0.071382 0.121179
0.147752 -0.060668 0.127831
0.259048 -0.075448 0.135250
0.267165 -0.091055 0.150558
0.263908 -0.080742 0.137351
0.173199 0.159426 0.054731
0.169434 0.167245 0.068455
-0.116583 -0.120406 -0.077919
-0.121869 -0.120705 -0.075595
-0.122720 -0.122376 -0.071520
-0.083850 0.051671 -0.126247
-0.096671 0.059100 -0.124572
-0.034169 -0.095038 -0.052530
-0.038564 -0.094967 -0.048272
0.045605 0.158426 -0.039900
0.047814 0.162888 -0.029098
0.043070 0.163361 -0.031316
-0.058753 0.038996 -0.127688
-0.045055 -0.100689 -0.038082
-0.043180 -0.098296 -0.041084
-0.045912 -0.098303 -0.038433
-0.094733 -0.113677 -0.122128
-0.088178 -0.114043 -0.130384
-0.089222 -0.115560 -0.129541
0.076786 0.110452 0.127839
0.090777 0.108633 0.125459
0.087191 0.094031 0.119183
0.019150 0.194520 0.084433
-0.075971 0.063446 -0.113780
-0.067417 0.078168 -0.102104
-0.084666 0.077036 -0.109021
-0.048985 -0.100712 -0.038567
-0.048382 -0.100243 -0.035993
-0.048665 -0.099923 -0.039572
0.089331 -0.045945 0.130992
0.071816 -0.051974 0.129663
0.075109 -0.046291 0.130980
-0.039387 -0.124265 0.024705
-0.036988 -0.127026 0.022404
-0.042859 -0.121938 0.015155
0.176201 0.004360 0.089588
0.158171 0.006607 0.088623
0.127660 0.079393 0.109915
-0.050294 -0.104209 -0.024032
-0.050011 -0.102844 -0.030244
-0.052205 -0.104656 -0.025354
-0.091022 -0.109576 -0.115018
-0.098308 -0.110858 -0.106962
-0.089889 -0.109236 -0.108837
0.032675 -0.109661 0.068290
0.065765 -0.102800 0.079706
0.048096 -0.109858 0.073363
0.048285 -0.104354 0.073214
0.164054 0.166713 0.056020
0.054134 0.165583 -0.012380
0.060339 0.164328 -0.002704
0.120352 0.178051 0.147992
0.120801 0.192287 0.154680
0.129909 0.180809 0.142336
0.054675 -0.111534 -0.269121
0.084683 -0.106337 -0.301674
0.048737 -0.101515 -0.273774
0.045753 -0.117486 0.074280
0.064460 -0.111586 0.080808
0.048399 -0.078828 -0.299209
0.045405 -0.091528 -0.282908
0.063714 -0.084759 -0.304232
0.076745 -0.126437 0.094596
0.074619 -0.137162 0.099752
0.055479 -0.130879 0.084377
-0.057575 -0.106148 -0.037693
-0.052651 -0.103966 -0.033152
-0.095787 -0.104213 0.009040
-0.106073 -0.103817 0.002723
-0.104366 -0.099423 0.014533
-0.055115 -0.101730 -0.076413
-0.061144 -0.103743 -0.082427
0.095815 0.162831 0.053149
0.088996 0.161184 0.044378
0.096318 0.155143 0.044349
0.131071 -0.050438 0.129810
0.135495 -0.057583 0.126056
0.147917 0.026383 0.082399
-0.053491 -0.102524 -0.062116
-0.049752 -0.100528 -0.055942
-0.049155 -0.099830 -0.062115
-0.043863 -0.100507 -0.219306
-0.019032 -0.089215 -0.250694
-0.043603 -0.093920 -0.235529
0.132457 -0.000561 0.104076
0.128160 0.004551 0.092445
0.121712 -0.078512 0.111037
0.049040 0.154646 -0.047917
0.052767 0.157732 -0.038690
0.062407 0.169326 0.015410
0.067718 0.162363 0.008998
0.160923 0.136692 0.022824
0.154922 0.127676 0.018613
0.165884 0.115502 0.007704
0.095381 -0.089466 0.095148
0.110873 -0.086406 0.103363
-0.174510 0.066075 -0.128170
-0.159955 0.088506 -0.122294
-0.176933 0.082026 -0.125108
0.071154 0.166602 0.025780
-0.081574 -0.117373 -0.146281
-0.074715 -0.116986 -0.148037
-0.065911 -0.114839 -0.163546
-0.186560 0.054828 -0.005036
-0.180673 0.069198 0.012287
0.112340 0.034055 0.087410
0.093499 0.041311 0.092627
0.112680 0.044602 0.092786
0.150235 0.046698 0.095154
-0.121172 -0.080992 0.016068
-0.118063 -0.080361 0.008253
-0.121273 -0.079102 0.005685
-0.098615 -0.026685 -0.223919
-0.097573 -0.036363 -0.235255
-0.083054 -0.024988 -0.242650
0.132900 0.174752 0.069105
0.045811 -0.023765 0.108161
0.033976 -0.018814 0.094975
0.058228 -0.015933 0.100559
0.113234 0.091509 0.115981
-0.036017 0.170389 -0.020989
-0.061454 0.166881 -0.034664
-0.047248 0.167494 -0.032259
0.039163 0.223191 0.152563
0.037395 0.229361 0.165970
0.025685 0.220358 0.146178
-0.030225 0.008259 -0.213318
-0.056177 0.008535 -0.206754
-0.035109 0.008195 -0.220287
-0.044004 0.170290 -0.003629
-0.026715 0.173198 0.002823
-0.032781 0.172724 0.008042
-0.058276 -0.100224 -0.218916
0.144061 0.067974 0.105306
-0.094515 -0.112147 -0.094211
-0.101564 -0.113653 -0.093255
-0.102331 -0.115167 -0.088673
0.130490 0.226705 0.146869
0.124798 0.226630 0.143112
0.133825 0.214534 0.123856
0.016995 0.146322 -0.034872
-0.139520 -0.093479 -0.201354
-0.127598 -0.089544 -0.217978
-0.122780 -0.081301 -0.225179
0.065656 0.158721 -0.008716
0.059036 0.161025 -0.016606
-0.109611 -0.117867 -0.083745
-0.109521 -0.119638 -0.078736
-0.102482 -0.116667 -0.084033
-0.140907 0.116460 -0.112234
-0.155751 0.118546 -0.115485
-0.159736 0.103516 -0.119312
0.137837 0.215961 0.130560
0.035297 -0.041633 -0.315634
0.020932 -0.055200 -0.305154
0.043749 -0.050714 -0.316247
0.314873 -0.002805 0.081996
0.291280 0.016263 0.060672
0.053689 0.161856 -0.024647
0.183325 -0.017141 0.132100
0.056939 0.241663 0.190072
0.047642 0.233037 0.172918
0.061374 0.237112 0.178828
-0.131336 -0.013040 -0.174904
-0.129442 -0.019810 -0.177850
-0.118464 -0.014200 -0.188497
0.182751 -0.049155 0.136523
0.165762 -0.052860 0.134551
0.180902 -0.037956 0.137952
0.144147 0.203230 0.109468
0.139496 0.200563 0.102085
0.012663 0.187878 0.063378
-0.001227 0.182385 0.045858
0.015731 0.185277 0.049497
-0.056025 -0.092598 -0.236991
-0.078332 -0.104154 -0.208626
-0.027057 -0.068966 -0.278709
-0.003407 -0.066720 -0.287548
0.004252 -0.050489 -0.302636
0.048182 0.146094 -0.064033
0.043189 0.151410 -0.050552
0.042734 0.142964 -0.059821
-0.065438 -0.110103 -0.012363
-0.071017 -0.110962 -0.018128
-0.070025 -0.110853 -0.007183
0.056946 0.135691 0.144936
0.058864 0.113061 0.131594
0.045220 0.121739 0.139119
-0.092194 -0.014370 -0.218599
-0.110995 -0.024136 -0.203868