# vtk DataFile Version 3.0
3D Unstructured Surface
ASCII
DATASET UNSTRUCTURED_GRID
POINTS 4088 float
18.072986 31.385148 -23.844403
17.818742 31.228841 -23.838763
18.018109 31.187053 -23.991104
18.864142 33.787163 -23.330260
18.918201 34.008530 -23.351972
18.762189 33.980714 -23.240395
15.501909 35.150001 -29.578151
15.512371 35.338614 -29.525853
15.683934 35.243866 -29.642829
18.178140 30.960814 -24.324208
17.992671 30.998205 -24.169308
17.944749 30.830835 -24.334990
16.593194 31.203733 -23.386351
16.388677 31.143984 -23.408085
16.543400 31.042187 -23.545985
15.835398 30.729458 -23.870284
15.757919 30.611826 -24.027865
15.993871 30.629224 -23.982264
15.058118 34.637673 -29.576016
14.814092 34.496339 -29.549847
14.936206 34.671135 -29.518965
14.421092 29.632649 -26.343766
14.181886 29.681417 -26.445608
14.367462 29.526655 -26.635431
15.035976 34.416112 -29.651085
15.003537 34.198581 -29.717522
14.878224 34.324050 -29.637575
18.249729 31.516916 -23.838909
18.280279 31.331660 -24.012009
20.414077 30.216423 -30.039851
20.404321 30.060625 -29.885026
20.229668 30.078236 -30.022310
15.488430 29.254406 -28.358317
15.613712 29.179647 -28.179277
15.415641 29.205511 -28.145994
17.920655 31.479214 -23.679088
17.695973 31.384582 -23.637925
14.595848 29.363300 -26.980495
14.437645 29.385240 -27.101084
14.603446 29.330065 -27.200795
14.430584 30.204104 -29.312114
14.359801 30.059156 -29.170340
14.185922 30.155118 -29.214655
15.521202 29.151916 -27.968151
15.300617 29.190695 -27.966006
14.170338 29.563361 -28.351487
14.445834 29.510999 -28.397680
14.387747 29.459081 -28.196623
14.600515 29.318325 -27.403870
14.794281 29.267638 -27.499869
14.788792 29.278471 -27.275282
14.948805 30.572920 -29.660544
14.748772 30.458859 -29.559205
14.712230 30.669206 -29.667520
14.819052 31.513317 -29.925421
14.921648 31.236030 -29.890070
14.703716 31.292680 -29.872793
14.944352 29.806127 -29.068770
14.851001 29.681952 -28.885010
14.686505 29.836711 -29.027130
17.915001 29.055161 -28.511997
18.121688 29.051752 -28.353510
17.924092 29.033913 -28.258362
14.347216 31.050699 -29.759516
14.367389 31.266229 -29.818653
14.551666 31.187068 -29.827630
14.574239 30.002832 -29.171449
14.417744 29.870870 -28.989110
20.038804 33.722145 -24.129880
20.034036 33.463249 -24.204060
20.234449 33.597331 -24.282399
14.386619 30.391587 -29.440996
14.224469 30.557293 -29.514199
14.505277 30.562603 -29.572154
13.942423 30.268898 -29.251553
14.176210 30.330945 -29.352300
13.988732 30.470344 -29.410379
15.365477 30.061594 -29.420995
15.242563 29.913247 -29.264374
15.119767 30.067100 -29.366252
21.353297 30.560298 -29.432424
21.404511 30.712883 -29.561078
21.506621 30.685805 -29.374102
21.440232 30.870555 -29.678173
21.256705 30.735127 -29.760471
21.258334 30.587050 -29.604819
21.754262 31.184615 -29.581519
21.724156 31.002402 -29.450735
21.602103 31.031513 -29.630064
21.130253 30.854071 -29.961835
21.327147 30.913229 -29.832030
19.735902 32.213414 -30.540549
19.920690 32.068650 -30.551742
19.757229 32.009830 -30.558833
21.884421 31.322394 -29.543098
21.774542 31.377123 -29.694601
19.855706 31.883735 -30.565504
21.609944 31.230264 -29.764483
21.641882 31.439594 -29.850546
20.670064 31.377521 -30.398277
20.884286 31.564551 -30.345346
20.937182 31.299288 -30.268359
20.751516 30.923456 -30.241377
20.885006 31.059074 -30.221161
20.918189 30.852104 -30.111713
18.552245 31.990728 -30.420429
18.790967 32.043780 -30.459467
18.747433 31.844107 -30.458345
19.250422 32.282253 -30.504612
19.059531 32.121411 -30.495670
19.048995 32.355416 -30.476362
20.719396 30.676609 -30.146104
20.949179 30.646194 -29.965224
20.739941 30.480306 -30.010458
18.158854 32.308532 -30.353579
18.374601 32.151806 -30.388162
18.147185 32.062306 -30.357077
21.057199 31.064667 -30.122688
21.312242 30.323736 -27.908889
21.117122 30.246903 -27.762283
21.159098 30.206281 -27.995685
21.082915 30.089011 -28.596646
21.218880 30.186013 -28.562387
21.099101 30.104289 -28.434225
21.718125 30.540313 -28.045206
21.613410 30.461379 -28.308259
21.780644 30.570829 -28.293448
20.956937 30.001164 -28.525843
20.966585 30.014365 -28.755912
21.508386 30.508796 -29.019872
21.344776 30.388250 -29.101454
21.429694 30.523650 -29.228864
21.182352 30.456714 -29.537012
20.982051 30.323476 -29.620170
21.096095 30.535781 -29.739482
20.764309 30.194607 -29.707700
20.877943 30.149864 -29.482053
18.798005 33.253065 -30.417215
18.772728 33.063168 -30.410324
18.590067 33.258420 -30.394860
18.108196 31.179857 -30.327762
17.964806 30.941002 -30.282054
17.889877 31.230669 -30.287952
21.056507 33.064656 -30.327443
20.817822 33.053262 -30.380250
20.915625 33.260510 -30.351088
21.113802 30.688955 -29.860140
20.852692 32.503993 -30.394067
20.799794 32.692580 -30.398358
21.006456 32.670062 -30.351923
21.191568 33.273436 -30.279550
21.332018 33.055588 -30.247662
22.072450 31.605182 -29.520302
22.192069 31.610093 -29.373850
22.038543 31.416565 -29.431281
22.433522 32.327376 -29.481443
22.285957 32.150201 -29.566677
22.283070 32.379337 -29.649265
22.521736 32.112297 -29.242163
22.418383 31.949596 -29.289249
22.428522 32.135819 -29.391324
21.992321 31.742977 -29.676348
22.161692 31.769005 -29.512219
22.349122 31.533791 -29.058043
22.298824 31.621905 -29.226779
22.426782 31.756405 -29.126473
22.104890 32.219300 -29.756929
21.945196 31.991464 -29.815030
21.918312 32.180736 -29.890263
18.609533 32.213131 -30.422759
18.051149 31.418386 -30.327583
18.277579 31.351099 -30.367369
18.311600 31.128278 -30.369271
18.879375 31.380577 -30.491898
18.636864 31.443043 -30.441445
18.794957 31.616510 -30.471951
20.411917 31.882338 -30.506306
20.465516 31.593000 -30.484947
20.262725 31.695455 -30.530891
17.604305 31.633456 -30.274519
17.706176 31.788686 -30.297296
17.758800 31.512995 -30.287794
20.360833 32.482099 -30.479455
20.180549 32.618676 -30.483225
20.360366 32.688172 -30.462692
20.565234 31.189591 -30.400163
20.581201 30.990865 -30.344707
20.391382 31.086796 -30.435590
19.908686 34.225129 -30.483957
20.056787 34.026040 -30.460830
19.770697 33.993427 -30.487993
20.193791 33.838829 -30.441779
20.367078 33.650017 -30.422954
20.120796 33.645371 -30.449297
20.174407 34.248012 -30.446455
20.306813 34.056759 -30.424987
21.446116 31.284433 -29.940899
21.358452 31.500817 -30.086919
21.526979 31.515358 -29.975496
18.997056 31.704808 -24.158162
18.994279 31.498308 -24.328511
19.178810 31.682637 -24.302848
21.265396 35.634475 -24.610777
21.087390 35.561156 -24.442319
21.239639 35.418344 -24.587508
21.759964 36.320421 -25.319736
21.692273 36.166080 -25.171615
21.820733 36.118504 -25.357720
19.486425 32.273016 -24.173729
19.682643 32.384542 -24.292567
19.533975 32.483225 -24.125701
17.945973 32.823918 -30.318081
17.883216 33.046885 -30.316990
18.079775 33.020206 -30.332806
17.706582 33.112365 -30.307422
17.737166 32.924583 -30.303000
17.530947 33.060818 -30.295628
19.981670 31.114528 -25.524739
20.130141 31.048498 -25.714643
20.209969 31.238807 -25.582595
19.846865 32.511493 -24.378013
19.813923 32.283463 -24.452180
19.997399 32.430940 -24.533411
21.562582 37.394204 -28.101438
21.439103 37.510647 -28.279206
21.465189 37.615398 -28.070117
18.030405 37.701108 -30.111361
17.828328 37.565255 -30.159008
17.811422 37.765775 -30.051470
19.756893 30.774765 -25.705767
19.559794 30.605292 -25.748678
19.698308 30.570286 -25.893321
15.907670 35.293026 -29.743758
16.082796 35.364649 -29.820410
16.096005 35.164967 -29.855204
16.271598 30.417003 -29.770825
16.165530 30.290079 -29.697395
16.109771 30.491338 -29.779562
19.348064 32.385759 -24.010016
19.154925 32.296136 -23.900459
19.289141 32.167481 -24.066488
19.876734 35.947038 -30.374522
19.611704 35.972761 -30.453690
19.773790 36.172239 -30.377365
20.512041 37.040229 -29.771504
20.706219 36.928967 -29.660872
20.541763 36.767440 -29.842589
20.413805 34.092733 -24.231567
20.290865 33.815491 -24.246322
20.489709 33.887475 -24.334839
16.694614 29.186345 -26.810550
16.589668 29.125455 -27.031633
16.882892 29.152121 -26.953657
17.029001 29.647818 -25.777314
17.121381 29.561579 -25.991356
17.261870 29.660003 -25.849322
18.391926 33.226944 -30.370747
18.162404 33.191751 -30.345777
18.236064 33.365110 -30.362149
22.711006 31.929520 -28.703603
22.670288 32.062871 -28.942514
22.781458 32.164297 -28.785436
20.010492 31.584324 -25.098404
20.204347 31.706948 -25.152534
20.077988 31.776781 -24.997725
21.312977 37.652948 -28.406771
21.203761 37.835608 -28.428033
21.287379 37.821811 -28.254138
17.984077 29.746001 -26.042655
18.098903 29.673550 -26.223324
18.239692 29.807014 -26.068438
21.541398 37.757556 -26.568641
21.648599 37.577086 -26.561199
21.630116 37.641431 -26.786436
21.616106 37.026627 -25.463884
21.688905 36.858534 -25.479009
21.718719 36.979854 -25.651373
17.050564 34.136166 -30.257334
16.792224 34.256390 -30.189495
17.019335 34.410782 -30.248287
16.329015 31.303375 -23.232864
16.188278 31.181214 -23.338925
20.649241 34.014717 -24.387072
20.595492 34.229353 -24.297369
22.458338 31.203116 -27.806038
22.407817 31.195925 -27.513598
22.311866 31.043382 -27.713146
17.003883 32.404499 -30.240362
16.875923 32.152645 -30.213176
16.721576 32.381229 -30.215035
20.684502 37.154419 -29.587284
20.861403 37.047960 -29.468680
17.514131 30.331864 -24.787053
17.386474 30.391378 -24.626975
17.360741 30.220324 -24.884613
19.159376 31.090244 -24.857835
19.157893 31.226251 -24.711149
19.003558 31.121243 -24.708069
17.735452 34.021424 -30.377154
17.714426 34.281229 -30.396726
17.912314 34.190199 -30.415945
19.399355 32.034141 -24.228998
18.514639 33.044972 -30.380584
14.634668 32.713431 -29.913539
14.478222 32.503229 -29.897184
14.424884 32.740385 -29.869601
21.192484 35.220887 -24.551136
21.094531 35.358383 -24.455175
19.573677 36.586087 -30.371136
19.691506 36.403257 -30.368552
19.455138 36.404799 -30.437396
20.715431 34.741378 -24.247554
20.889465 34.836013 -24.348772
20.769425 34.945726 -24.245699
18.072549 30.072667 -25.527762
18.132236 30.208078 -25.341362
17.882945 30.091677 -25.389005
21.791214 30.780296 -27.371427
21.890885 30.734719 -27.635698
[...]
POINT_DATA 4088
VECTORS Displacement float
-0.008286 0.022952 -0.078697
0.004858 0.034359 -0.066037
-0.009709 0.034247 -0.070996
0.042058 -0.009063 -0.214340
0.051399 -0.008330 -0.216528
0.057211 -0.010814 -0.216005
0.252591 -0.060001 0.132751
0.252829 -0.067714 0.133653
0.248266 -0.057166 0.123329
-0.028140 0.048786 -0.072392
-0.012571 0.046495 -0.067592
-0.012649 0.058565 -0.064910
0.073806 0.055867 -0.082049
0.087323 0.063016 -0.100915
0.074300 0.061813 -0.077815
0.108902 0.087642 -0.158316
0.105781 0.092574 -0.164235
0.095029 0.088976 -0.132636
0.259582 -0.068673 0.174316
0.263708 -0.079539 0.196447
0.260894 -0.075435 0.182465
0.119708 0.111651 -0.074334
0.131814 0.104983 -0.069092
0.117838 0.104745 -0.052269
0.260524 -0.065712 0.180785
0.261263 -0.061981 0.185222
0.263976 -0.072850 0.195375
-0.018629 0.014184 -0.090491
-0.026879 0.023040 -0.082991
-0.157477 0.148977 0.131051
-0.162721 0.156575 0.125226
-0.146968 0.170564 0.144110
0.118770 0.150194 0.051317
0.111788 0.150753 0.049377
0.113159 0.140089 0.039494
0.005245 0.021586 -0.078712
0.016027 0.029618 -0.068475
0.108252 0.104000 -0.029505
0.114155 0.097560 -0.026916
0.109954 0.101535 -0.020205
0.181016 0.098496 0.028214
0.174199 0.093244 0.015840
0.184178 0.081482 0.013055
0.106798 0.140584 0.036551
0.109683 0.130505 0.028206
0.142662 0.075439 -0.007813
0.136966 0.092001 0.000880
0.132753 0.087519 -0.003477
0.112685 0.099675 -0.013430
0.109119 0.106162 -0.004931
0.105908 0.107029 -0.012918
0.183395 0.128780 0.083444
0.184828 0.118041 0.064505
0.194470 0.111494 0.076820
0.221748 0.085083 0.137521
0.207252 0.104370 0.123170
0.219484 0.089920 0.122393
0.153248 0.135973 0.047270
0.147199 0.126648 0.034110
0.156895 0.116389 0.027730
0.037799 0.180339 0.132097
0.021412 0.171048 0.112410
0.032708 0.170587 0.109662
0.227184 0.079401 0.096516
0.236111 0.072571 0.115653
0.222834 0.086032 0.111930
0.167261 0.108868 0.026649
0.161756 0.096130 0.010710
-0.056804 -0.046045 -0.198920
-0.071836 -0.044449 -0.189340
-0.084449 -0.058331 -0.186801
0.192381 0.094613 0.038996
0.207331 0.082707 0.046299
0.197023 0.100397 0.058454
0.199577 0.066202 0.013853
0.195690 0.081055 0.025000
0.211868 0.068956 0.031779
0.158223 0.166106 0.092195
0.155037 0.158453 0.076674
0.162233 0.149100 0.072752
-0.185997 0.013102 0.048324
-0.177311 0.003217 0.054478
-0.179921 -0.010205 0.045702
-0.168632 -0.005255 0.060573
-0.173305 0.021673 0.064471
-0.182434 0.026450 0.058119
-0.156862 -0.044215 0.069019
-0.163556 -0.039102 0.057335
-0.162103 -0.027013 0.063264
-0.162853 0.031229 0.072935
-0.164347 0.006371 0.066530
-0.010302 0.057986 0.040849
-0.030190 0.054150 0.048342
-0.022529 0.063370 0.048733
-0.153421 -0.056594 0.075498
-0.151942 -0.048623 0.081001
-0.035106 0.063365 0.054804
-0.154344 -0.031964 0.074083
-0.148782 -0.038894 0.085246
-0.111164 0.041779 0.074177
-0.114986 0.017449 0.075446
-0.129782 0.025712 0.075359
-0.141816 0.065444 0.087877
-0.140506 0.044026 0.079261
-0.154789 0.054296 0.082413
0.040555 0.104672 0.065429
0.031533 0.096220 0.056467
0.023667 0.106493 0.070145
0.022778 0.073847 0.036112
0.022769 0.085489 0.046870
0.037905 0.077484 0.034662
-0.155296 0.087191 0.098504
-0.169079 0.064106 0.082824
-0.167941 0.099194 0.100558
0.077246 0.097968 0.059579
0.057899 0.101194 0.061062
0.065015 0.109994 0.074577
-0.147799 0.027533 0.075388
-0.218842 -0.016636 -0.018811
-0.228222 0.005497 -0.029917
-0.224398 0.010119 -0.021115
-0.215115 0.045089 0.006346
-0.213680 0.021787 0.004387
-0.218301 0.037111 -0.002575
-0.189225 -0.057113 -0.006594
-0.195910 -0.040479 -0.000841
-0.182944 -0.056629 0.001148
-0.215737 0.063236 0.002743
-0.211185 0.068635 0.017312
-0.191386 -0.012296 0.027572
-0.197676 0.013450 0.031354
-0.189694 0.001150 0.037664
-0.188552 0.040986 0.057212
-0.189051 0.075324 0.070870
-0.181095 0.051019 0.069482
-0.183909 0.110793 0.089800
-0.193243 0.094636 0.069253
0.109195 0.057735 0.018315
0.099372 0.063632 0.018324
0.119433 0.060980 0.018660
0.041204 0.163443 0.141362
0.048394 0.182998 0.168154
0.055223 0.165331 0.144252
-0.103307 -0.031256 0.108743
-0.078222 -0.017162 0.098850
-0.086725 -0.029210 0.100788
-0.172402 0.041645 0.072040
-0.089092 -0.005493 0.097267
-0.081294 -0.006580 0.096958
-0.101056 -0.018362 0.108123
-0.116068 -0.044936 0.108250
-0.130218 -0.046788 0.115962
-0.151850 -0.071782 0.089402
-0.152069 -0.078793 0.085150
-0.152043 -0.068465 0.077781
-0.166622 -0.089376 0.101743
-0.162157 -0.084201 0.105977
-0.168470 -0.084437 0.110365
-0.160136 -0.092697 0.091063
-0.157083 -0.089596 0.091649
-0.161622 -0.089619 0.097824
-0.152121 -0.067777 0.099548
-0.153792 -0.077705 0.095819
-0.149922 -0.086791 0.071143
-0.151724 -0.084405 0.080579
-0.152682 -0.090105 0.081173
-0.162190 -0.076300 0.115129
-0.154296 -0.066564 0.112030
-0.156912 -0.066236 0.118663
0.049967 0.093569 0.050859
0.048451 0.149314 0.122883
0.033621 0.147701 0.120369
0.028400 0.161322 0.139971
0.000425 0.127423 0.103998
0.015236 0.131457 0.102745
0.012043 0.116690 0.085651
-0.072317 0.035162 0.063506
-0.088216 0.043700 0.068447
-0.070425 0.050545 0.064091
0.080895 0.144544 0.126119
0.079224 0.133314 0.111896
0.068400 0.149605 0.127594
-0.045933 0.022501 0.065355
-0.024849 0.028224 0.056125
-0.038966 0.017728 0.068492
-0.115034 0.061109 0.082163
-0.127601 0.074635 0.091707
-0.109782 0.080704 0.092690
0.038114 -0.016229 0.066957
0.021813 -0.014140 0.070230
0.052003 -0.000227 0.059693
0.004709 -0.012829 0.073179
-0.017978 -0.013917 0.078054
0.010604 -0.001471 0.068297
0.009593 -0.029012 0.075055
-0.006413 -0.027259 0.078087
-0.149316 -0.018333 0.077299
-0.139452 -0.017017 0.084919
-0.144379 -0.031058 0.088296
-0.089556 -0.000508 -0.127538
-0.096779 0.010592 -0.117289
-0.110510 -0.000737 -0.131052
-0.108696 -0.144375 -0.088823
-0.098190 -0.137856 -0.103281
-0.115039 -0.142744 -0.098192
-0.119064 -0.148621 -0.063064
-0.118273 -0.149780 -0.062385
-0.125033 -0.150004 -0.057880
-0.111625 -0.022716 -0.160471
-0.120943 -0.029042 -0.158133
-0.101875 -0.025125 -0.168599
0.117827 0.078882 0.041381
0.133584 0.070815 0.034890
0.124925 0.071694 0.029906
0.143318 0.068035 0.038622
0.131834 0.075217 0.045200
0.146553 0.069282 0.047728
-0.206270 0.013572 -0.126561
-0.216641 0.008002 -0.121157
-0.214069 -0.011407 -0.113105
-0.124465 -0.035693 -0.154787
-0.137923 -0.032563 -0.147620
-0.140799 -0.041740 -0.142789
-0.081482 -0.147504 -0.001362
-0.073303 -0.144247 0.004906
-0.074889 -0.144098 -0.004683
0.078095 -0.150808 0.111361
0.095072 -0.151155 0.129608
0.097778 -0.159575 0.126470
-0.196393 0.057735 -0.136533
-0.179194 0.083508 -0.135322
-0.191608 0.080514 -0.136579
0.241030 -0.051926 0.111858
0.233504 -0.050649 0.104910
0.235095 -0.038467 0.093804
0.140202 0.207897 0.163425
0.143170 0.208321 0.157095
0.146729 0.197662 0.152662
-0.091964 -0.020659 -0.169684
-0.078925 -0.016836 -0.167641
-0.099241 -0.017481 -0.158712
0.011066 -0.089838 0.067222
0.028696 -0.080261 0.056690
0.011010 -0.093539 0.064365
-0.043641 -0.133829 0.057504
-0.048319 -0.133467 0.057372
-0.040863 -0.129340 0.064489
-0.080805 -0.076633 -0.189133
-0.079365 -0.064291 -0.191378
-0.098009 -0.079575 -0.181961
0.061786 0.164555 0.002650
0.068432 0.165045 0.015433
0.058308 0.167079 0.013357
0.039299 0.144082 -0.030686
0.037619 0.151021 -0.024744
0.030030 0.144797 -0.024878
0.125874 0.063956 0.020347
0.132296 0.066049 0.024177
0.139136 0.060390 0.021549
-0.148406 -0.097420 0.067303
-0.154988 -0.096371 0.077814
-0.154058 -0.097797 0.071736
-0.190192 -0.018324 -0.120396
-0.194347 -0.034548 -0.110366
-0.184988 -0.030381 -0.118675
-0.067377 -0.141048 0.007571
-0.064061 -0.137808 0.005033
-0.066679 -0.139111 0.000038
-0.011577 0.143699 -0.025545
-0.017103 0.146950 -0.021976
-0.032092 0.141986 -0.034962
-0.091798 -0.142356 -0.066059
-0.100799 -0.146486 -0.066001
-0.096316 -0.146131 -0.056864
-0.110106 -0.145927 -0.089716
-0.113605 -0.146234 -0.081691
-0.114819 -0.146254 -0.083327
0.201336 0.029134 0.028334
0.211176 0.021010 0.033795
0.206665 0.018218 0.028087
0.095185 0.060825 -0.121436
0.103122 0.066886 -0.129875
-0.110241 -0.092817 -0.173128
-0.095992 -0.091753 -0.177431
-0.135638 -0.092416 0.012038
-0.137117 -0.091025 0.002898
-0.143966 -0.089282 0.000846
0.140317 0.100301 0.109362
0.138777 0.114955 0.125876
0.153624 0.099071 0.120435
-0.049902 -0.136219 0.050184
-0.054103 -0.136460 0.050780
0.010169 0.093936 -0.045947
0.017226 0.089322 -0.047625
0.018559 0.101576 -0.042287
-0.127976 0.042056 -0.114765
-0.123993 0.030149 -0.115851
-0.109358 0.039257 -0.107531
0.177748 0.036776 0.025754
0.181974 0.025471 0.026026
0.173986 0.029301 0.027145
-0.117255 -0.016641 -0.150302
0.109761 0.068128 0.020784
0.266132 -0.004031 0.182039
0.270978 0.002471 0.180284
0.278116 -0.017685 0.188601
-0.119384 -0.139687 -0.109364
-0.106031 -0.136583 -0.110925
0.008323 -0.100987 0.062536
0.008094 -0.098357 0.063652
0.022562 -0.089899 0.056596
-0.091531 -0.107678 -0.161446
-0.106365 -0.119913 -0.145828
-0.090625 -0.114426 -0.151401
-0.025949 0.121933 -0.046338
-0.032336 0.111822 -0.054638
-0.012145 0.117123 -0.041395
-0.182914 -0.076796 -0.014873
-0.175685 -0.076619 -0.011402
-0.167932 -0.082856 -0.012165
0.067638 0.160630 -0.001716
0.060614 0.161580 -0.011709
0.291880 0.017186 0.075255
0.298574 0.011771 0.074498
0.318106 0.005796 0.095216
0.174755 0.045393 0.026400
0.167940 0.045554 0.025381
0.117187 0.204489 0.178980
0.127527 0.202049 0.172756
0.125938 0.191706 0.168139
0.148156 0.012377 0.030990
0.149073 0.000562 0.029373
0.136046 0.002278 0.031667
0.165200 0.029957 0.028305
0.158338 0.021224 0.029880
0.156496 0.030299 0.028933
0.160538 0.065706 0.062742
0.147004 0.073186 0.061150
0.150409 0.077510 0.078791
0.125442 0.145882 0.048284
0.125196 0.161028 0.064019
-0.063823 0.000302 -0.121036
-0.080103 -0.006717 -0.137097
-0.059050 -0.008453 -0.142859
0.095666 0.122264 -0.006062
0.092554 0.130555 0.001813
0.090005 0.129263 -0.012414
-0.108377 -0.148745 -0.069291
-0.096552 -0.146409 -0.077499
-0.101134 -0.146649 -0.075698
-0.036834 -0.131144 0.062808
-0.039338 -0.134766 0.056866
0.014369 0.158039 0.073688
0.017123 0.162871 0.091172
0.000844 0.157127 0.073505
0.135325 -0.047520 0.028888
0.119969 -0.047767 0.025587
0.134378 -0.038456 0.024890
0.128791 0.199765 0.113692
0.128461 0.186743 0.095184
0.134978 0.189923 0.101344
-0.111143 0.122149 -0.099006
-0.132544 0.107106 -0.114516
-0.107979 0.110663 -0.100526
-0.238610 -0.010047 -0.059925
-0.238643 0.003307 -0.058705
-0.233486 -0.022538 -0.045063
-0.048384 0.135878 -0.050652
-0.026959 0.136217 -0.038230
0.100089 0.113297 -0.028895
0.099974 0.116721 -0.046056
0.107174 0.108760 -0.042517
0.168239 0.038767 0.026342
-0.018164 -0.125833 0.062901
-0.023947 -0.126794 0.065315
-0.013228 -0.118824 0.066536
-0.028555 -0.121608 -0.035566
-0.026093 -0.118557 -0.036042
-0.033729 -0.118599 -0.032309
-0.071323 -0.092663 -0.178195
-0.070799 -0.100115 -0.169153
-0.050119 -0.083999 -0.186889
0.160297 0.171366 0.140446
0.149305 0.187837 0.151225
0.155127 0.183693 0.140786
0.066171 0.112686 -0.099997
0.071758 0.116199 -0.117069
0.065279 0.121870 -0.099744
0.165955 0.050708 0.026186
-0.160326 0.095582 -0.128632
-0.168264 0.101653 -0.130388
0.044920 -0.071554 0.046684
0.046518 -0.067160 0.048553
0.064491 -0.059464 0.037570
-0.205840 -0.043437 -0.014100
-0.218552 -0.029820 -0.022543
0.132567 0.228716 0.180903
0.136016 0.225617 0.169988
0.140265 0.216845 0.161091
-0.028376 -0.126772 0.066860
-0.032611 -0.131873 0.061805
-0.020008 -0.120890 0.068582
-0.005292 -0.109532 0.067290
-0.050971 -0.138073 0.042053
-0.045570 -0.137416 0.048138
-0.142522 -0.157910 -0.029846
-0.136012 -0.157687 -0.037158
-0.143659 -0.157045 -0.038057
0.108221 0.245258 0.226201
0.117208 0.241830 0.212742
0.108678 0.237845 0.216620
-0.011254 -0.020925 -0.209246
-0.030242 -0.023072 -0.202750
-0.030522 -0.031521 -0.205957
-0.080980 -0.140007 -0.043751
-0.091087 -0.145535 -0.046633
-0.086055 -0.144403 -0.038751
-0.191569 -0.127688 -0.070421
-0.187094 -0.119717 -0.071692
-0.189054 -0.123406 -0.060234
-0.041465 -0.042656 -0.205053
-0.025491 -0.037344 -0.210064
0.158047 0.085875 0.106961
-0.053224 -0.138625 0.034318
-0.049528 -0.139021 0.036976
0.146572 -0.028011 0.025460
0.159825 -0.025852 0.027513
0.148993 -0.037181 0.027949
0.124075 0.176083 0.080914
0.117390 0.163749 0.065188
0.099996 0.156465 0.046397
0.098507 0.166844 0.058089
0.092797 0.158608 0.040500
-0.094037 -0.140276 -0.093486
-0.081522 -0.132840 -0.108304
-0.134869 -0.023426 -0.148343
-0.076077 -0.136023 -0.105780
-0.067725 -0.134664 -0.109310
-0.080059 -0.139154 -0.110522
-0.057785 -0.138364 0.025876
-0.056562 -0.136660 0.018265
-0.058891 -0.137148 0.018065
0.107749 0.171907 0.158332
0.102249 0.186604 0.169087
0.117014 0.176584 0.161593
-0.077611 -0.085986 -0.184275
-0.047037 -0.072381 -0.197318
-0.055046 -0.067123 -0.199306
-0.074516 0.008065 -0.112596
-0.089694 -0.141943 -0.085924
-0.079085 -0.136388 -0.097015
0.014196 -0.019336 -0.217107
0.010508 -0.014525 -0.213408
-0.006282 -0.024741 -0.212769
0.105680 0.164549 0.060574
-0.072506 -0.138649 -0.022813
-0.071950 -0.139978 -0.015741
-0.068504 -0.136148 -0.017740
0.017684 0.155218 0.017250
0.022900 0.156034 0.035195
0.009041 0.152781 0.027131
0.065761 0.180144 0.107761
0.075944 0.184356 0.106200
0.076590 0.189914 0.125465
-0.054833 -0.119108 -0.033536
-0.055415 -0.120796 -0.028075
-0.050054 -0.117469 -0.032484
-0.008635 -0.010233 -0.167747
-0.005235 -0.005605 -0.145448
-0.023308 -0.008380 -0.152087
0.111918 0.173683 0.074756
0.110573 0.160606 0.058997
0.067374 0.059996 0.020123
0.075434 0.054396 0.020514
0.059101 0.054025 0.022341
0.021674 0.180491 0.131565
0.038361 -0.015220 -0.212047
0.037942 -0.012038 -0.213183
0.048811 -0.016186 -0.214020
0.095049 0.169268 0.154741
0.088562 0.183765 0.167302
0.045851 0.143982 -0.036985
0.045586 0.149348 -0.032007
0.142173 0.143411 0.148236
0.157469 0.127589 0.146137
0.146749 0.128538 0.141752
0.140752 0.200970 0.161920
0.133730 0.211989 0.172936
0.107142 -0.058735 0.030371
0.101531 -0.053302 0.026746
0.079277 -0.158306 0.103195
-0.044693 -0.139776 0.039781
-0.047862 -0.140172 0.029035
0.094983 -0.066999 0.035904
0.078507 -0.074798 0.042101
0.078659 -0.065992 0.034906
0.109820 -0.033644 0.025663
0.117131 -0.021874 0.028168
0.127604 -0.026941 0.024547
-0.058190 0.146129 -0.031221
-0.045094 0.147261 -0.014566
-0.066943 0.146452 -0.029778
-0.182621 -0.096539 -0.062060
-0.182242 -0.094144 -0.052391
-0.179704 -0.100991 -0.050619
0.022176 -0.093576 0.057048
0.134729 -0.031222 0.024229
0.142791 -0.021477 0.025344
0.251384 -0.043265 0.141116
0.256608 -0.057724 0.160754
0.252334 -0.049207 0.136039
0.168770 0.139831 0.069138
0.167038 0.150487 0.083332
-0.135073 -0.154556 -0.051680
-0.139904 -0.153423 -0.050771
-0.142245 -0.155432 -0.045170
-0.077166 0.017444 -0.105050
-0.089149 0.023760 -0.105672
-0.049995 -0.118665 -0.028068
-0.054560 -0.121075 -0.023744
0.058887 0.151912 -0.040270
0.060900 0.155647 -0.030262
0.056840 0.155939 -0.030341
-0.053623 0.008628 -0.105271
-0.051936 -0.125362 -0.012660
-0.051215 -0.122691 -0.017254
-0.055240 -0.124581 -0.011407
-0.105392 -0.146394 -0.088406
-0.099255 -0.146115 -0.095892
-0.098709 -0.146556 -0.088451
0.101180 0.150785 0.140405
0.114501 0.146386 0.141443
0.112244 0.135752 0.131126
0.031070 0.164128 0.088948
-0.067108 0.029915 -0.093690
-0.056940 0.046148 -0.084031
-0.074397 0.042808 -0.092099
-0.061909 -0.135719 0.005640
-0.059859 -0.133321 0.004892
-0.061430 -0.133245 0.000666
0.104651 -0.000066 0.041581
0.088735 -0.007034 0.048217
0.092837 0.000457 0.046593
-0.035126 -0.135402 0.055863
-0.032783 -0.137043 0.050704
-0.040195 -0.137927 0.049289
0.180376 0.045440 0.029526
0.168047 0.052621 0.030007
0.149961 0.113750 0.132496
-0.060168 -0.139073 0.024831
-0.061607 -0.138816 0.018766
-0.063091 -0.140606 0.026240
-0.108071 -0.145626 -0.093461
-0.114394 -0.146646 -0.084355
-0.108594 -0.146089 -0.088002
0.036327 -0.083106 0.050397
0.066007 -0.067595 0.037144
0.049434 -0.078332 0.045647
0.050817 -0.073748 0.043146
0.158261 0.143872 0.060929
0.066393 0.157359 -0.016298
0.071572 0.155250 -0.009395
0.134362 0.192146 0.164870
0.133342 0.202663 0.169402
0.142134 0.190659 0.159319
0.021245 -0.108668 -0.167779
0.041473 -0.099681 -0.194174
0.014594 -0.103765 -0.168226
0.046513 -0.085605 0.050138
0.063353 -0.075485 0.042598
0.010471 -0.088801 -0.187594
0.009991 -0.098142 -0.173996
0.023108 -0.089597 -0.192691
0.073281 -0.087848 0.054218
0.072293 -0.100367 0.067288
0.055342 -0.096559 0.058732
-0.071710 -0.144112 0.015270
-0.065539 -0.141229 0.018590
-0.108168 -0.121836 0.045009
-0.124480 -0.123172 0.036329
-0.119298 -0.114654 0.043775
-0.073572 -0.133816 -0.045744
-0.080108 -0.137415 -0.052999
0.101639 0.146442 0.037372
0.095886 0.146073 0.029305
0.100860 0.137649 0.027495
0.133606 -0.009603 0.028930
0.134802 -0.017649 0.026220
0.164983 0.067489 0.078596
-0.070124 -0.135342 -0.026629
-0.066391 -0.132404 -0.021521
-0.066947 -0.130840 -0.030037
-0.060511 -0.122419 -0.125797
-0.042232 -0.109761 -0.148876
-0.062403 -0.117329 -0.138669
0.149816 0.054225 0.022607
0.147110 0.060202 0.024673
0.119191 -0.037935 0.023582
0.061604 0.148462 -0.050189
0.064691 0.150603 -0.042492
0.073949 0.159362 0.008618
0.077712 0.151875 -0.000736
0.150232 0.107865 0.016636
0.143628 0.098297 0.006888
0.153571 0.086587 0.000409
0.094771 -0.050269 0.026333
0.108374 -0.045697 0.024294
-0.170416 0.035579 -0.129899
-0.152189 0.057207 -0.124343
-0.171396 0.053515 -0.131339
0.081312 0.155392 0.015647
-0.089777 -0.143799 -0.081829
-0.083404 -0.143065 -0.086566
-0.075447 -0.138454 -0.091062
-0.214921 0.079420 -0.006237
-0.206946 0.097046 0.012981
0.135529 0.083788 0.072989
0.119555 0.093974 0.077822
0.136239 0.091259 0.090010
0.170068 0.081604 0.116503
-0.143576 -0.091179 0.048142
-0.139364 -0.093247 0.038202
-0.143723 -0.088483 0.033001
-0.129529 -0.066654 -0.151066
-0.129261 -0.077280 -0.156636
-0.114281 -0.064418 -0.165189
0.131069 0.152927 0.056774
0.071312 0.035829 0.033429
0.061151 0.045808 0.026686
0.086581 0.048020 0.022976
0.136355 0.127347 0.135709
-0.024785 0.147981 -0.018139
-0.051646 0.145087 -0.035993
-0.036318 0.144928 -0.031031
0.051547 0.193259 0.156491
0.049314 0.200362 0.171038
0.036752 0.189968 0.151543
-0.043030 -0.015341 -0.190092
-0.070475 -0.018650 -0.181472
-0.052456 -0.017103 -0.191883
-0.034952 0.147934 -0.001727
-0.016203 0.149379 0.007263
-0.023353 0.148790 0.011693
-0.073820 -0.124352 -0.126810
0.164951 0.099840 0.132053
-0.113925 -0.149390 -0.071074
-0.119741 -0.150035 -0.069930
-0.121028 -0.151624 -0.064087
0.137229 0.216925 0.146019
0.132293 0.214711 0.138990
0.138322 0.201665 0.120154
0.030487 0.134680 -0.029898
-0.166415 -0.133852 -0.125744
-0.152535 -0.128286 -0.135995
-0.150046 -0.121316 -0.142614
0.075293 0.148519 -0.018143
0.070054 0.152370 -0.023096
-0.127857 -0.153219 -0.058110
-0.128631 -0.155224 -0.050748
-0.121631 -0.153193 -0.057627
-0.130647 0.086046 -0.114700
-0.147035 0.091127 -0.122909
-0.151329 0.074128 -0.124580
0.142444 0.205398 0.131139
-0.002336 -0.062882 -0.208434
-0.013749 -0.076679 -0.195806
0.004981 -0.068539 -0.206281
0.328177 0.001351 0.109800
0.299603 0.016188 0.088459
0.065717 0.154163 -0.028620
0.176940 0.019237 0.027194
0.070084 0.216077 0.194281
0.060385 0.204943 0.176937
0.074935 0.211021 0.181170
-0.155351 -0.048542 -0.130431
-0.156204 -0.056588 -0.126486
-0.144442 -0.050642 -0.137192
0.169034 -0.014561 0.027466
0.156869 -0.015668 0.026536
0.170117 -0.003076 0.027353
0.145955 0.189362 0.109933
0.140881 0.184453 0.097531
0.024516 0.158653 0.068418
0.009741 0.153988 0.051581
0.028307 0.158106 0.054385
-0.073996 -0.118056 -0.140802
-0.091628 -0.130043 -0.120690
-0.052873 -0.095593 -0.173493
-0.032988 -0.090071 -0.179928
-0.028059 -0.075903 -0.195237
0.060795 0.141235 -0.066809
0.056668 0.145871 -0.050442
0.056136 0.138658 -0.060611
-0.073395 -0.140960 0.041542
-0.081470 -0.142410 0.036022
-0.077209 -0.138891 0.045059
0.079664 0.173873 0.157040
0.083716 0.156192 0.139757
0.069419 0.165105 0.145905
-0.120953 -0.051929 -0.154627
-0.140797 -0.063220 -0.138896
0.109401 0.159114 0.149571
-0.106914 -0.030360 -0.166133