# vtk DataFile Version 3.0
3D Unstructured Surface
ASCII
DATASET UNSTRUCTURED_GRID
POINTS 2095 float
19.611749 30.751514 -30.101173
19.456865 30.617393 -30.039227
19.606998 30.545981 -30.044989
19.313444 31.318992 -25.460587
19.162043 31.330360 -25.272303
19.329782 31.486260 -25.309731
20.655159 30.797432 -28.478310
20.506135 30.914155 -28.593490
20.698100 30.874239 -28.664753
18.726201 30.401012 -26.294343
18.981214 30.448170 -26.327307
18.879653 30.335606 -26.464742
16.784881 30.718758 -29.177360
16.660036 30.532940 -29.073197
16.886052 30.506574 -29.119354
20.372922 30.249003 -28.861654
20.412699 30.243761 -28.652640
20.583354 30.364278 -28.765444
18.574354 31.820130 -27.746488
18.670837 31.759565 -27.557187
18.471472 31.921095 -27.570504
18.652771 31.905574 -26.897084
18.892988 31.752580 -26.908359
18.800888 31.866201 -26.689752
19.002145 31.753779 -26.697129
19.057697 31.679978 -26.851914
19.158967 31.660105 -26.746810
19.364724 31.658648 -26.429922
19.399461 31.718638 -26.173272
19.224733 31.763597 -26.315549
19.521568 31.623426 -25.725273
19.408003 31.798492 -25.781918
19.501925 31.690322 -25.967072
18.433173 30.148064 -26.597408
18.499456 30.054892 -26.787747
18.297809 30.000841 -26.808332
16.829975 30.058175 -28.849509
17.016648 29.936857 -28.809877
17.058798 30.121450 -28.967694
19.887408 30.031636 -29.287577
20.042492 30.153160 -29.449669
19.818994 30.059234 -29.510704
19.544689 31.451649 -25.705124
19.455814 31.512413 -25.527758
19.338594 30.778357 -26.040109
19.115774 30.789680 -25.905878
19.310775 30.929009 -25.851956
19.678786 30.102398 -29.720186
19.648842 30.242833 -29.882979
19.468384 30.178661 -29.838484
16.802668 31.141410 -29.317040
16.919954 30.886837 -29.265973
17.045185 31.060202 -29.345471
16.982070 31.282652 -29.390704
16.786886 31.357324 -29.374902
19.623687 31.508685 -25.882655
19.770379 31.550088 -30.117552
19.592627 31.581017 -30.071137
19.623799 31.334372 -30.129843
18.586640 31.859221 -27.326110
18.788320 31.708650 -27.361476
18.723692 31.804450 -27.112829
19.062989 31.627796 -27.026619
19.235044 31.567003 -26.930448
19.715054 31.726075 -30.036035
19.525293 31.599533 -26.333715
19.614591 31.571288 -26.121796
20.052459 31.753851 -29.665507
19.885235 31.923425 -29.672602
19.871563 31.850197 -29.889388
17.179890 30.269356 -29.093603
16.989084 30.313503 -29.057464
17.048197 30.694886 -29.234602
20.145763 30.984571 -28.390244
20.115071 30.989389 -28.158420
19.966423 31.045932 -28.326400
18.668265 30.138948 -26.707177
18.660945 30.030705 -26.892758
19.333085 31.591668 -26.691138
19.550684 31.527662 -26.529911
20.681418 31.006125 -29.016831
20.587679 30.979110 -28.814001
20.452794 31.104124 -29.004012
18.932926 31.665739 -27.153988
20.710669 30.492583 -28.561875
20.537257 30.319734 -28.518245
19.020921 31.369148 -25.078941
19.099231 31.519188 -24.953425
19.205579 31.483675 -25.126729
18.945466 31.067075 -25.433136
18.767925 30.986648 -25.425503
18.775075 31.097877 -25.267941
18.480402 29.938362 -26.991671
20.504202 30.361051 -29.045944
20.102991 30.144947 -29.211565
20.247308 30.251337 -29.326517
19.726477 30.406818 -29.980804
19.490929 30.407745 -29.976420
17.239810 30.992482 -29.373585
17.097245 30.879977 -29.306467
17.538955 30.837657 -24.939572
17.648357 30.758725 -25.123057
17.471920 30.677475 -25.172062
19.523536 31.042967 -30.109863
19.733018 31.141310 -30.163711
19.899297 31.695483 -30.039757
20.081914 31.689996 -29.941967
18.870667 30.229908 -26.634434
18.876467 30.084474 -26.884429
19.891903 30.148595 -29.657896
17.117781 30.469951 -29.168330
17.311948 30.391508 -29.193521
17.257816 30.592414 -29.256103
17.355582 31.357186 -29.487765
17.150989 31.393056 -29.451876
17.202926 31.212760 -29.420285
17.380968 30.207603 -29.127942
17.265318 30.108473 -29.029715
20.738198 30.507370 -29.002799
20.217053 30.276043 -29.532966
19.566436 31.451818 -26.761044
19.790972 30.589243 -30.059471
19.719126 31.374961 -26.015766
19.610813 31.311691 -25.819125
17.460136 30.519849 -29.289943
17.473139 31.512876 -29.550492
17.278748 31.516660 -29.506954
17.491035 32.583577 -29.776931
17.233063 32.535601 -29.723911
17.428785 32.335822 -29.722159
19.255963 30.306471 -29.873446
19.057350 30.433937 -29.819740
19.051000 30.149669 -29.708810
19.981535 31.536154 -30.112283
19.559844 30.811050 -26.159891
19.576200 30.672993 -26.348384
19.400484 30.658632 -26.234733
18.732372 29.957733 -27.054485
17.643479 32.384147 -29.770109
17.598349 32.214642 -29.729106
17.747483 30.446109 -25.708313
17.704521 30.548558 -25.508817
17.913951 30.562280 -25.596813
19.698300 30.987166 -26.123097
19.524999 30.949038 -25.978202
18.947830 30.002554 -27.065848
20.773455 30.703304 -28.586387
20.800805 30.560659 -28.744373
17.723437 31.504864 -29.604058
17.566320 31.671818 -29.606293
17.766352 32.591678 -29.827679
19.851712 31.330350 -30.169333
18.857018 31.629757 -27.566533
18.922630 31.569301 -27.751623
19.060259 31.503745 -27.596365
15.002922 33.927327 -29.286179
14.924695 34.125125 -29.157046
14.775784 33.930574 -29.183352
17.510109 30.333887 -29.232110
20.617850 31.095284 -29.180227
20.427397 30.357522 -29.261154
20.593366 30.455364 -29.185037
18.987421 31.212659 -25.265135
17.488492 30.903647 -29.414289
17.730701 30.850105 -29.463699
17.682284 31.081116 -29.503254
18.839829 31.636163 -28.122694
18.733046 31.693736 -27.817422
18.639864 31.779662 -28.051694
19.851643 30.766139 -30.107778
19.771888 30.942036 -30.148864
19.940030 31.109280 -30.159532
20.384258 30.376361 -29.460177
19.751975 30.718942 -26.475623
19.764663 30.585304 -26.682659
19.592587 30.559199 -26.520998
17.894423 32.138075 -29.760494
17.747899 32.208802 -29.753287
17.686336 32.030341 -29.706599
19.735558 31.316137 -26.865491
19.554411 31.388839 -26.988538
20.475411 31.190877 -29.205987
20.385285 31.332954 -29.379025
20.599768 31.182731 -29.355138
13.203009 31.371809 -28.970714
13.413299 31.268763 -28.984077
13.411333 31.407160 -28.983840
20.445670 30.660910 -27.587129
20.352884 30.794184 -27.490622
20.385918 30.869933 -27.639138
20.785776 30.916927 -28.858637
20.830189 30.886322 -29.041182
19.896634 30.796704 -26.653165
19.880647 30.928697 -26.491293
19.572206 30.429727 -26.702731
19.413778 30.327172 -26.744165
19.352641 30.420276 -26.557596
18.290226 31.819424 -24.258316
18.341965 31.674444 -24.373694
18.148945 31.693932 -24.287309
17.315542 32.442805 -23.306531
17.239827 32.586963 -23.167603
17.429522 32.618648 -23.296422
20.546030 30.480008 -29.367613
18.198407 32.187044 -27.419291
18.366678 32.041404 -27.341332
18.159892 32.242398 -27.219311
19.905719 30.459645 -29.972333
19.239147 31.381866 -27.965384
19.421599 31.294415 -27.872433
19.253611 31.384803 -27.725878
20.156968 31.051199 -30.077692
20.122103 31.314644 -30.117696
19.055128 31.491707 -28.081094
18.919873 31.566314 -27.923304
19.871164 31.173661 -26.958431
19.741074 31.249254 -27.119176
19.123423 30.097829 -26.971068
19.135272 29.989042 -27.189499
18.254035 31.042907 -25.022333
18.230731 30.910914 -25.208344
18.010756 30.918181 -25.067857
19.895033 31.156523 -26.535677
19.841838 31.063316 -26.314420
19.827467 31.296629 -26.369339
20.030685 31.151799 -28.710381
19.916846 31.287219 -28.812604
20.096217 31.218030 -28.874633
17.884761 32.360444 -29.803081
18.066389 32.237495 -29.801808
18.154972 32.417399 -29.844196
18.753708 31.974119 -28.700163
18.710452 31.884109 -28.524196
18.566801 32.068651 -28.598087
19.049282 31.532093 -28.292785
20.001387 30.886664 -30.104759
20.023336 30.650728 -30.021026
19.069861 31.476936 -27.829504
19.522600 31.337060 -27.232446
19.659150 31.245032 -27.363667
17.225696 32.249797 -29.669398
17.189059 32.030891 -29.614931
17.441792 32.091960 -29.675130
19.743807 30.433356 -26.877197
19.535920 30.283136 -26.905796
14.865879 33.583426 -29.300288
14.646194 33.740495 -29.179798
14.703371 33.521251 -29.245797
20.174241 31.513372 -30.036302
20.557636 31.275620 -29.536702
20.836010 30.783043 -28.737165
20.882392 30.721683 -28.908756
20.201927 30.836183 -29.994081
20.306448 31.526763 -29.687452
20.442087 31.397054 -29.600320
20.317709 31.460898 -29.527442
18.252946 32.195644 -29.820719
18.117530 32.022386 -29.769208
18.559304 32.066639 -26.548312
18.714121 31.965613 -26.527307
18.608959 32.088729 -26.368214
19.466463 31.319496 -27.438089
20.087440 30.449025 -29.872490
13.731525 30.311020 -26.905027
13.802232 30.220827 -27.096553
13.592642 30.272584 -27.118363
20.281574 31.541178 -29.879715
19.980209 30.401345 -27.188861
20.119055 30.343848 -27.412024
19.843016 30.194242 -27.357499
20.651416 30.652452 -29.447034
20.702365 30.581873 -29.272950
20.495744 30.532080 -29.542036
20.314778 30.442078 -29.680387
20.077661 30.257377 -29.682247
20.254171 30.648847 -29.876396
19.915600 31.115679 -27.154747
17.870465 31.167536 -29.565170
18.055302 31.234719 -29.616642
17.908236 31.362203 -29.613718
18.266509 32.240637 -24.049116
18.109679 32.114470 -24.049079
18.113338 32.394629 -23.942714
18.405654 32.698323 -29.882953
18.287207 32.886979 -29.851393
18.159390 32.670354 -29.876740
20.326455 31.033942 -29.958671
19.451334 31.299718 -27.623395
19.616466 31.220070 -27.742105
19.602268 31.245874 -27.544251
20.396868 30.828108 -29.842294
20.495703 31.037243 -29.811892
20.409727 31.218407 -29.909235
20.656228 31.076506 -29.579755
20.429071 30.651925 -29.724380
19.094104 30.345516 -26.541817
19.246304 30.306906 -26.679338
16.947775 31.491008 -29.437800
16.758036 31.544749 -29.422932
19.947410 31.050864 -26.845841
19.972401 31.012485 -26.987326
18.200836 30.380770 -26.067369
18.367321 30.477327 -25.991592
18.342651 30.347486 -26.202235
17.873246 30.176868 -29.276945
18.043303 30.194585 -29.337205
17.905169 30.382946 -29.373218
20.547558 30.835334 -29.700609
17.980687 30.821996 -29.516273
17.825279 30.620588 -29.427089
18.345203 31.995148 -29.803010
18.508593 32.162350 -29.854063
18.115290 32.511631 -26.275673
18.328839 32.324256 -26.314645
18.273585 32.460436 -26.095412
20.573120 30.703129 -29.597389
20.537886 31.260381 -29.716537
20.410155 31.414416 -29.817118
20.299987 31.387642 -29.992627
[...]
POINT_DATA 2095
VECTORS Displacement float
-0.008649 0.035786 0.033673
-0.007465 0.041507 0.042227
-0.008698 0.040919 0.038089
-0.110844 0.042908 -0.025513
-0.103643 0.046040 -0.031597
-0.113182 0.039940 -0.032469
-0.064959 0.005468 0.022710
-0.064135 0.005745 0.021290
-0.058500 0.003861 0.024553
-0.055501 0.063888 -0.000957
-0.068414 0.059230 -0.003693
-0.058453 0.061894 0.000842
0.045919 0.063042 0.069660
0.052664 0.066160 0.067697
0.046848 0.068026 0.075654
-0.045822 0.032897 0.017554
-0.052299 0.031139 0.015240
-0.049154 0.023222 0.017244
-0.082954 0.020170 0.002888
-0.090237 0.021435 0.000887
-0.083172 0.021305 -0.000596
-0.099971 0.026826 -0.009616
-0.108688 0.026320 -0.006641
-0.107388 0.028699 -0.011648
-0.114445 0.027721 -0.008771
-0.114397 0.025822 -0.005186
-0.118367 0.025795 -0.005290
-0.125524 0.025652 -0.007578
-0.126861 0.027262 -0.013128
-0.123033 0.028903 -0.013251
-0.125268 0.030474 -0.020927
-0.125503 0.030208 -0.024482
-0.127625 0.027378 -0.015928
-0.030073 0.068836 0.013608
-0.027756 0.068608 0.018047
-0.017109 0.070959 0.022832
0.053525 0.075925 0.075209
0.049652 0.079143 0.080977
0.047602 0.076650 0.083794
-0.027708 0.048864 0.030377
-0.025792 0.042540 0.027369
-0.021394 0.048766 0.034404
-0.122089 0.032751 -0.018276
-0.119914 0.035687 -0.025442
-0.095994 0.047243 -0.009991
-0.088774 0.053620 -0.012322
-0.100675 0.046891 -0.013044
-0.014886 0.049802 0.040186
-0.011542 0.047267 0.040879
-0.009184 0.051839 0.047784
0.037232 0.054090 0.062640
0.038346 0.059663 0.069973
0.030515 0.055698 0.068171
0.028330 0.051048 0.062304
0.034114 0.049676 0.058302
-0.125787 0.027415 -0.013245
-0.014679 0.018912 0.015452
-0.016527 0.020483 0.019237
-0.012899 0.023728 0.021643
-0.091940 0.023079 -0.003390
-0.097920 0.022750 -0.000924
-0.100192 0.024850 -0.005371
-0.111889 0.024204 -0.002381
-0.117444 0.023197 -0.001052
-0.017954 0.017125 0.015535
-0.127893 0.023367 -0.006085
-0.128191 0.023812 -0.008604
-0.027659 0.007649 0.012407
-0.028235 0.008775 0.013502
-0.021763 0.012303 0.013288
0.042610 0.074044 0.086103
0.047116 0.072597 0.080864
0.038403 0.064114 0.076502
-0.075663 0.009229 0.017044
-0.084771 0.008111 0.016220
-0.079123 0.010668 0.015800
-0.039065 0.066152 0.011777
-0.032745 0.066695 0.017358
-0.122685 0.023832 -0.003062
-0.126784 0.021038 -0.001589
-0.046418 0.003875 0.023931
-0.055079 0.004190 0.022601
-0.049094 0.004876 0.019012
-0.106126 0.023961 -0.002312
-0.056269 0.014617 0.018675
-0.056857 0.024466 0.014645
-0.095821 0.046652 -0.037359
-0.099331 0.042012 -0.043475
-0.106079 0.042125 -0.038171
-0.089366 0.053825 -0.023964
-0.078725 0.056852 -0.022897
-0.080775 0.054523 -0.027659
-0.020802 0.069238 0.024471
-0.040302 0.026649 0.018644
-0.032991 0.042253 0.024265
-0.030808 0.036063 0.022117
-0.010877 0.042182 0.036204
-0.007929 0.046255 0.044720
0.025490 0.056618 0.071785
0.032755 0.059723 0.073167
-0.016355 0.047243 -0.021028
-0.019257 0.051675 -0.017043
-0.010920 0.051725 -0.014438
-0.010336 0.030233 0.030363
-0.010518 0.025690 0.021511
-0.017097 0.014917 0.012757
-0.019114 0.011304 0.011467
-0.052267 0.062692 0.005234
-0.044167 0.063426 0.011629
-0.019203 0.045005 0.032696
0.040919 0.069449 0.082130
0.036852 0.071192 0.086621
0.034284 0.066386 0.082003
0.013718 0.047614 0.062465
0.020311 0.048144 0.061076
0.021874 0.051740 0.065785
0.038032 0.075197 0.089842
0.042382 0.077327 0.088715
-0.041298 0.016330 0.020599
-0.024753 0.035657 0.023266
-0.124236 0.018682 0.002244
-0.010172 0.036757 0.030771
-0.124326 0.024639 -0.007534
-0.120213 0.031609 -0.012875
0.029964 0.067551 0.085343
0.007061 0.043324 0.058392
0.013752 0.044840 0.058554
0.005665 0.028023 0.037031
0.012637 0.029299 0.038011
0.005015 0.030578 0.041759
-0.004963 0.052529 0.054546
-0.002850 0.052563 0.059840
-0.001600 0.059331 0.062510
-0.014135 0.016146 0.011783
-0.103144 0.038950 -0.007909
-0.097900 0.040007 -0.006916
-0.092884 0.046368 -0.007967
-0.031372 0.066067 0.019985
-0.000879 0.028753 0.040209
-0.000849 0.030758 0.043506
-0.015083 0.062391 -0.001487
-0.016521 0.059042 -0.006783
-0.025751 0.061420 -0.007087
-0.112200 0.031034 -0.006403
-0.107299 0.038962 -0.009798
-0.042030 0.062946 0.014248
-0.057855 0.006896 0.023387
-0.049905 0.011641 0.021573
-0.000837 0.040936 0.056858
0.001880 0.039282 0.054293
-0.001052 0.026722 0.036179
-0.011712 0.021050 0.015533
-0.095118 0.021143 0.002733
-0.091730 0.019699 0.005823
-0.098759 0.020055 0.005165
0.094778 -0.021327 0.053979
0.095105 -0.023425 0.056246
0.106316 -0.030074 0.056652
0.032391 0.071913 0.089210
-0.041050 0.004316 0.021527
-0.033397 0.029078 0.019654
-0.035866 0.022236 0.019437
-0.093521 0.050641 -0.029965
0.019708 0.057453 0.075189
0.013999 0.057095 0.076199
0.009316 0.051384 0.069254
-0.079429 0.017437 0.009494
-0.085646 0.019664 0.005122
-0.077064 0.018138 0.007394
-0.009943 0.031661 0.025178
-0.009588 0.029064 0.024064
-0.010430 0.023320 0.016232
-0.027258 0.029639 0.020277
-0.102875 0.032258 -0.004877
-0.097063 0.034296 -0.004441
-0.093087 0.041101 -0.006102
-0.009523 0.029025 0.042594
-0.005199 0.029598 0.042687
-0.003936 0.032259 0.046299
-0.122158 0.014563 0.005691
-0.120311 0.017361 0.004638
-0.041111 0.004523 0.018087
-0.035185 0.004946 0.015125
-0.034968 0.004469 0.019938
0.205691 -0.027409 0.027114
0.187201 -0.015663 0.021877
0.193567 -0.019860 0.024040
-0.089970 0.008490 0.011629
-0.096684 0.006016 0.012422
-0.095118 0.002667 0.015638
-0.050576 0.002873 0.026637
-0.043189 0.004778 0.026682
-0.107334 0.024196 -0.001235
-0.112447 0.022503 -0.001107
-0.086206 0.044073 -0.004969
-0.076778 0.050328 -0.003035
-0.080041 0.050624 -0.004504
-0.049526 0.031076 -0.056984
-0.053365 0.034756 -0.053106
-0.043245 0.032168 -0.052391
-0.004842 0.008195 -0.071469
-0.000427 0.005137 -0.074997
-0.006422 0.008352 -0.075678
-0.030230 0.023292 0.019413
-0.073007 0.023356 -0.005609
-0.082578 0.023096 -0.005168
-0.073192 0.025302 -0.009589
-0.012619 0.037655 0.029433
-0.090147 0.016734 0.010584
-0.095099 0.015385 0.010833
-0.098011 0.017797 0.008378
-0.011868 0.020601 0.012992
-0.012303 0.017056 0.010896
-0.084128 0.017093 0.010494
-0.086773 0.018586 0.007904
-0.118264 0.012339 0.007231
-0.117374 0.013146 0.007776
-0.054123 0.059371 0.007168
-0.047872 0.060458 0.011499
-0.051035 0.052593 -0.028267
-0.048631 0.056286 -0.022656
-0.037556 0.052719 -0.023443
-0.120233 0.016277 0.002477
-0.116838 0.022484 -0.001980
-0.124067 0.017771 0.000339
-0.063885 0.008301 0.015781
-0.060446 0.007381 0.014504
-0.056917 0.006570 0.015233
-0.007361 0.027256 0.039181
-0.012889 0.026705 0.039408
-0.012272 0.025201 0.036196
-0.059808 0.013481 0.012663
-0.064852 0.014691 0.011696
-0.058601 0.014849 0.012187
-0.077282 0.015707 0.012085
-0.010687 0.026536 0.018559
-0.012136 0.031172 0.022626
-0.092161 0.018564 0.008004
-0.114700 0.016640 0.006446
-0.111850 0.013568 0.008767
0.011304 0.032703 0.043498
0.012641 0.036109 0.047731
0.003808 0.033540 0.046430
-0.089207 0.038544 -0.004003
-0.077420 0.047964 -0.002804
0.106721 -0.024726 0.051288
0.117406 -0.034895 0.055498
0.117129 -0.030451 0.051997
-0.015441 0.012928 0.010402
-0.029036 0.005280 0.017602
-0.052710 0.004557 0.026065
-0.045392 0.006817 0.025856
-0.013227 0.023817 0.015781
-0.025348 0.006837 0.012552
-0.027487 0.005646 0.014820
-0.030409 0.005602 0.013342
-0.016846 0.025556 0.037919
-0.015230 0.028114 0.041808
-0.097004 0.030161 -0.017188
-0.104321 0.030387 -0.015893
-0.098959 0.031771 -0.020686
-0.108863 0.016604 0.007589
-0.015740 0.034375 0.024590
0.136175 0.024880 -0.030373
0.128068 0.025473 -0.020547
0.140558 0.019716 -0.017437
-0.019674 0.009322 0.011415
-0.088609 0.031855 -0.001139
-0.084655 0.029752 0.000824
-0.076716 0.042558 -0.000901
-0.028316 0.017148 0.020034
-0.033265 0.016827 0.020850
-0.025144 0.023620 0.019036
-0.021078 0.029722 0.020587
-0.020261 0.038823 0.026847
-0.015971 0.026653 0.018396
-0.114200 0.010621 0.008947
0.001835 0.047264 0.064970
-0.004502 0.043381 0.060542
-0.003536 0.041997 0.058618
-0.045009 0.024763 -0.067184
-0.038579 0.024830 -0.063121
-0.036538 0.022371 -0.069886
-0.010054 0.023977 0.031153
-0.003807 0.024721 0.030393
-0.007190 0.024846 0.033140
-0.014755 0.017458 0.012471
-0.103334 0.015982 0.008995
-0.100766 0.013030 0.011005
-0.106768 0.013826 0.009551
-0.017268 0.019892 0.015294
-0.019003 0.013557 0.014492
-0.017027 0.012393 0.012135
-0.026528 0.008194 0.019355
-0.020171 0.022775 0.017680
-0.067304 0.057684 -0.001083
-0.070504 0.054694 -0.001262
0.026225 0.046892 0.057500
0.032564 0.045951 0.054532
-0.115810 0.014036 0.005341
-0.113401 0.013115 0.006526
-0.031736 0.067230 0.001869
-0.043221 0.065973 -0.003508
-0.036351 0.067614 0.003235
0.025454 0.073032 0.090345
0.020997 0.071215 0.088405
0.021031 0.068154 0.087318
-0.021458 0.016266 0.017009
0.008213 0.055604 0.075073
0.017521 0.062612 0.082389
-0.019403 0.026352 0.039110
-0.020593 0.024050 0.034963
-0.068390 0.034969 -0.031127
-0.082639 0.032744 -0.025855
-0.075885 0.034964 -0.033188
-0.024020 0.018271 0.018489
-0.023086 0.007819 0.015637
-0.020755 0.008384 0.012818
-0.015687 0.012258 0.010627
-0.075204 0.011479 0.015566
-0.068693 0.010106 0.015299
-0.071785 0.010142 0.016184
-0.072165 0.018343 0.006291
-0.078550 0.019129 0.004988
-0.075194 0.019867 0.002523
-0.104976 0.018742 0.006355
-0.038925 0.006017 0.024568
-0.038347 0.009505 0.024646
0.177734 -0.010320 0.019035
0.173088 -0.007665 0.016996
0.024983 0.074847 0.089922
0.000478 0.057703 -0.005200
0.006598 0.056570 -0.008518
-0.001221 0.053922 -0.010792
0.093785 -0.013553 0.045016
0.108774 -0.020575 0.046104
-0.033194 0.006693 0.022612
-0.032446 0.011294 0.022787
-0.007898 0.023856 0.029346
-0.005796 0.023855 0.028570
-0.027324 0.012593 0.020319
0.054022 0.077454 0.066111
0.049990 0.080018 0.076089
0.054148 0.077356 0.072051
-0.094308 0.052391 -0.020222
-0.081642 0.057243 -0.018703
-0.074541 0.021565 -0.001777
-0.008334 0.037608 0.041177
-0.110134 0.018280 0.002681
-0.023733 0.022737 0.030711
-0.023349 0.020887 0.026444
-0.021748 0.022427 0.030747
-0.002772 0.050994 0.062826
-0.001174 0.052059 0.067541
0.002521 0.057622 0.071242
-0.066633 0.050338 0.002253
-0.057206 0.055858 0.006940
-0.067163 0.051389 0.001453
-0.100187 0.049217 -0.025159
0.190837 -0.019486 0.024357
0.050665 0.015351 0.027710
0.057335 0.010889 0.030189
0.057175 0.010949 0.030925
-0.019935 0.028525 0.041524
-0.017224 0.029344 0.043253
-0.014746 0.033214 0.047993
-0.014688 0.023431 0.031692
-0.012644 0.024158 0.033349
-0.081243 0.035559 -0.046836
-0.090668 0.034791 -0.039612
-0.092591 0.034296 -0.046243
-0.092654 0.012970 0.012557
-0.106753 0.016311 0.004441
-0.100852 0.026801 -0.001306
-0.005386 0.035608 0.050755
-0.015321 0.037684 -0.023959
-0.026367 0.037104 -0.025702
-0.014973 0.040478 -0.031462
-0.081057 0.042533 -0.002694
-0.054410 0.057626 0.008016
0.009074 0.060745 0.079204
0.013324 0.062124 0.081783
0.016040 0.066741 0.085121
-0.021722 0.025377 0.036988
0.028040 0.072446 0.090391
0.025471 0.067949 0.086975
-0.057153 0.012359 0.013132
-0.054363 0.011232 0.013224
-0.059003 0.011555 0.012805
-0.082263 0.015572 0.012358
-0.074404 0.013870 0.013549
-0.057568 0.029218 -0.015313
-0.048192 0.030324 -0.015496
-0.056972 0.027171 -0.010783
-0.003797 0.008872 -0.067019
0.000999 0.005495 -0.071514
-0.065768 0.011516 0.013500
-0.070156 0.012018 0.014159
-0.032358 0.007955 0.014147
-0.025616 0.011108 0.014651
-0.023230 0.025020 0.035126
-0.067018 0.026558 -0.076869
-0.061284 0.025469 -0.077899
-0.059356 0.028854 -0.080828
-0.010727 0.022570 0.027354
-0.012087 0.023085 0.029071
-0.015087 0.021695 0.026890
-0.092225 0.032342 -0.002185
-0.070611 0.017302 0.008443
-0.065332 0.016179 0.010170
-0.072103 0.016571 0.009910
-0.016532 0.024040 0.034452
-0.018908 0.023127 0.032370
-0.028121 0.034408 -0.019344
-0.014648 0.035018 -0.016465
-0.030662 0.031327 -0.012361
-0.017931 0.022009 0.028640
-0.008736 0.056421 -0.007924
-0.017902 0.020205 0.024515
-0.017084 0.020434 0.025085
-0.024446 0.017894 0.022208
-0.029776 0.006359 0.012254
-0.035401 0.005479 0.012728
-0.035350 0.005666 0.012406
-0.079983 0.057934 -0.013617
-0.069215 0.060931 -0.014614
-0.005669 0.044469 0.061797
0.001419 0.049185 0.067579
0.001392 0.051003 0.069710
-0.069469 0.013593 0.013013
-0.063946 0.013232 0.012561
-0.062977 0.011625 0.012883
-0.086488 0.014725 0.012634
-0.046705 0.036498 -0.047987
-0.036177 0.033332 -0.046903
-0.110258 0.008214 0.010914
-0.106035 0.007078 0.011117
-0.109778 0.010206 0.008751
-0.066910 0.018836 0.005348
-0.065433 0.017498 0.008191
-0.098348 0.023066 0.001225
-0.068174 0.059736 -0.019064
-0.059353 0.053806 0.006351
0.105710 0.041264 -0.082148
0.091644 0.047098 -0.074790
0.100491 0.044283 -0.069963
0.011742 0.065326 0.081701
0.005794 0.059483 0.075849
-0.001536 0.049599 0.067566
0.005197 0.055457 0.074558
-0.011378 0.038042 0.053863
-0.012131 0.038584 0.054098
-0.016847 0.033039 0.047140
0.056642 0.012174 0.031808
0.062013 0.008304 0.032949
0.085613 -0.014219 0.050490
0.085387 -0.014946 0.052365
0.048879 0.045703 -0.035353
0.037911 0.044240 -0.030362
0.036694 0.047328 -0.040799
-0.018916 0.055227 -0.012643
-0.027630 0.054197 -0.017489
-0.027124 0.058261 -0.012094
-0.008713 0.042793 -0.024597
-0.007801 0.047061 -0.019683
0.006584 0.051856 0.070470
-0.077673 0.013366 0.014250
-0.069896 0.046262 0.001617
-0.115501 0.016876 0.002707
0.012308 0.027278 0.033850
0.007164 0.026518 0.032898
0.018885 0.072790 0.086121
0.013083 0.068920 0.082007
0.016403 0.069339 0.085387
0.001886 0.054063 0.071763
-0.007219 0.059518 0.054715
-0.006716 0.055931 0.053742
-0.022766 0.023603 0.033408
0.027632 0.042718 -0.026781
0.028570 0.044858 -0.033539
0.053290 0.056324 -0.067120
0.047703 0.059554 -0.053826
0.056378 0.058786 -0.059554
-0.056355 0.009972 0.012603
-0.060019 0.009920 0.012788
-0.080094 0.014449 0.013357
-0.083796 0.012916 0.014061
-0.088916 0.011273 0.013985
0.159113 -0.005111 0.020634
0.176349 -0.012090 0.024167
0.165902 -0.007490 0.023669
0.114701 0.014670 0.003755
0.112646 0.015513 0.000354
0.120753 0.010064 0.006458
-0.001685 0.049531 -0.017093
-0.017202 0.053070 0.040806
0.128681 0.005787 0.012764
0.122894 0.009735 0.010154
-0.120937 0.020801 0.001300
-0.116815 0.019974 0.003104
-0.062488 0.016417 0.015874
-0.063238 0.009294 0.020450
-0.024524 0.007756 0.011937
-0.115928 0.032505 -0.036913
-0.121280 0.031967 -0.027397
-0.122022 0.031083 -0.034068
0.007971 0.046992 0.063235
0.140228 0.004190 0.018315
0.129340 0.008651 0.013223
0.132978 0.005156 0.016576
-0.077272 0.031901 -0.069221
-0.066118 0.035133 -0.070393
-0.079200 0.033501 -0.063587
0.029778 0.075897 0.091600
0.028983 0.077511 0.090207
0.061231 0.047378 -0.089120
0.071623 0.043042 -0.098766
0.064943 0.042087 -0.097892
-0.026009 0.043482 -0.083662
-0.034220 0.040568 -0.085821
-0.023245 0.042422 -0.091263
0.079642 0.047110 -0.088690
0.081981 0.048789 -0.081424
0.091958 0.043305 -0.093014
-0.067136 0.054658 0.000603
-0.062915 0.054837 0.003002
-0.127431 0.019554 -0.001593
-0.126018 0.020653 -0.003221
-0.037918 0.034852 0.020070
0.138548 0.002095 0.018388
0.150059 -0.001597 0.021721
0.144869 0.000935 0.020899
0.119459 0.012090 0.001167
0.067591 0.055262 -0.002650
0.068339 0.056580 -0.010456
0.063039 0.059384 -0.002521
0.127372 0.012205 0.008755
0.119478 0.013707 0.006584
0.159355 -0.003109 0.014304
0.173431 -0.009105 0.018658
0.174692 -0.010487 0.020670
0.002457 0.045424 0.062315
0.111160 0.018779 0.000667
0.005282 0.045359 -0.027982
-0.001106 0.045702 -0.022712
0.005018 0.048935 -0.021551
0.007019 0.063919 0.076033
-0.111069 0.039623 -0.013560
-0.116281 0.031338 -0.008902
-0.005068 0.047009 0.063378
-0.008121 0.043238 0.059646
0.079136 0.016043 0.032803
0.072067 0.015576 0.034069
0.081589 0.009898 0.033291
-0.017355 0.033050 0.046194
-0.020779 0.028868 0.040756
0.163291 -0.003217 0.013599
0.184950 -0.014506 0.021436
-0.111250 0.019154 0.004940
-0.004950 0.038170 -0.022024
-0.000044 0.036937 -0.016815
0.060216 0.025303 0.037073
0.068764 0.021397 0.034917
0.065332 0.026870 0.036445
-0.100290 0.008381 0.010274
-0.103444 0.013125 0.006761
-0.094881 0.018220 0.004420
-0.014628 0.043006 0.033699
-0.092524 0.025717 -0.066487
-0.085763 0.024125 -0.069896
-0.086364 0.026433 -0.069292
-0.050568 0.010213 0.013259
-0.091111 0.027155 -0.012229
-0.089923 0.029303 -0.016702
-0.081062 0.028427 -0.015829
-0.088650 0.035125 -0.056775
-0.081453 0.031864 -0.062041
-0.089585 0.029675 -0.063352
-0.045158 0.066386 0.001116
-0.039726 0.067315 0.005855
-0.101402 0.035995 -0.050753
-0.099577 0.030621 -0.057963
-0.068596 0.029125 -0.076798
-0.055180 0.032508 -0.082932
-0.064647 0.033115 -0.076271
-0.111076 0.022191 0.000991
0.005777 0.025977 0.031365
0.002142 0.026124 0.033483
-0.001101 0.025620 0.033116
-0.075554 0.030110 -0.072683
0.166360 -0.016106 0.027600
0.174170 -0.016695 0.026210
0.155300 -0.005908 0.022488
0.117509 0.017810 0.002054
-0.075052 0.027273 -0.013566
-0.069064 0.029518 -0.017688
-0.013686 0.015945 0.011009
0.056304 0.043499 -0.028737
0.063380 0.043534 -0.029742
0.062327 0.040525 -0.020072
-0.116818 0.030866 -0.042216
-0.119731 0.030249 -0.040510
-0.114944 0.028393 -0.048646
0.008849 0.068762 0.076289
-0.098687 0.028865 -0.013963
-0.074727 0.012207 0.013441
-0.082125 0.010092 0.012655
-0.081110 0.006005 0.016924
-0.011967 0.039287 0.053677
0.188135 -0.025370 0.029407
0.181194 -0.025182 0.030678
0.195770 -0.033309 0.033058
0.011243 0.009332 -0.057828
0.007877 0.007801 -0.060702
0.003175 0.009966 -0.057301
-0.037083 0.057025 -0.017762
-0.026624 0.069434 0.011306
-0.064121 0.009824 0.013686
0.006980 0.044286 -0.115465
0.005343 0.047566 -0.111194
-0.002505 0.043479 -0.109499
-0.031434 0.039490 -0.091417
-0.018965 0.041743 -0.097515
0.002495 0.074470 0.028375
-0.005339 0.072508 0.021679
-0.006922 0.072953 0.026219
-0.069892 0.011159 0.014676
-0.085419 0.010224 0.015066
-0.092292 0.008433 0.014518
0.051594 0.073800 0.077102
0.056485 0.072176 0.068835
-0.125289 0.016101 0.002933
-0.120740 0.013752 0.005248
-0.121600 0.031094 -0.019795
-0.117990 0.030795 -0.016306
-0.099224 0.006681 0.013895
-0.097379 0.010304 0.012776
0.104904 0.016144 0.023463
0.103499 0.021288 0.020299
0.095292 0.021784 0.024820
-0.109344 0.033554 -0.026959
-0.108574 0.032272 -0.020419
-0.115180 0.032524 -0.022077
-0.087998 0.018956 0.005226
-0.063892 0.049115 0.004705
-0.054388 0.055269 0.009938
-0.064152 0.026702 -0.011283
-0.112887 0.029973 -0.013637
-0.119686 0.027938 -0.009558
-0.112947 0.010850 0.009632
-0.007173 0.044782 0.058807
-0.016815 0.032738 0.044140
-0.020168 0.029335 0.040268
-0.022471 0.026164 0.035396
0.011987 0.049115 -0.029187
0.012466 0.052659 -0.021872
0.045461 0.018212 0.029771
0.038815 0.021421 0.029834
0.040215 0.020646 0.027208
-0.086246 0.045575 -0.042313
-0.084463 0.050390 -0.034629
-0.091936 0.053223 -0.016134
-0.105044 0.046256 -0.018551
0.112078 0.024720 0.005468
0.119778 0.019664 0.008285
0.123279 0.018498 0.004872
-0.091821 0.024938 -0.007723
-0.082876 0.025877 -0.010761
-0.055158 0.008331 0.012363
-0.081380 0.011738 0.014992
0.050855 0.015034 0.029712
0.029496 0.055147 -0.073661
0.019804 0.054633 -0.077205
0.033433 0.055999 -0.082626
-0.098785 0.003398 0.015318
-0.104944 0.005938 0.012958
0.087297 0.026938 0.026793
0.082836 0.033266 0.026951
0.077872 0.030110 0.031325
-0.060891 0.055560 -0.026422
-0.059423 0.058830 -0.021097
-0.103092 0.022039 0.001394
-0.106341 0.020672 0.003679
0.022747 0.062828 0.081692
0.086587 0.022862 0.028834
0.078883 0.024783 0.031817
0.086000 0.017651 0.030578
-0.072540 0.053576 -0.030404
-0.071256 0.056996 -0.024532
-0.021180 0.057601 0.039402
-0.025712 0.058147 0.035093
-0.028754 0.053464 0.031665
0.051266 0.015944 0.031756
0.043957 0.020420 0.032502
-0.024711 0.044981 -0.077968
-0.034162 0.043793 -0.069610
-0.034097 0.042799 -0.075888
0.136990 0.002409 0.015301
0.130581 0.005637 0.008796
0.143149 0.002141 0.010263
0.144957 0.000093 0.015139
-0.050944 0.026991 -0.082594
-0.046805 0.031871 -0.087417
-0.007961 0.037268 0.052966
-0.050237 0.065432 -0.002849
-0.056275 0.063969 -0.008824
-0.062889 0.062689 -0.007004
-0.011985 0.038044 0.050010
-0.043976 0.028431 -0.009868
-0.037963 0.031568 -0.015403