# vtk DataFile Version 3.0
3D Unstructured Surface
ASCII
DATASET UNSTRUCTURED_GRID
POINTS 2095 float
19.697001 30.691373 -30.215989
19.533865 30.536832 -30.159748
19.696545 30.464388 -30.167492
19.378579 31.282364 -25.327010
19.215194 31.292245 -25.144785
19.385505 31.459293 -25.174098
20.820006 30.813341 -28.441364
20.668134 30.928948 -28.561049
20.860575 30.897604 -28.638119
18.784059 30.281935 -26.192648
19.056965 30.337514 -26.215596
18.948717 30.215204 -26.363354
16.716038 30.561470 -29.270702
16.588408 30.364410 -29.170665
16.822302 30.335744 -29.223660
20.527538 30.192896 -28.879663
20.568843 30.193575 -28.652805
20.743367 30.337157 -28.765273
18.581763 31.789253 -27.671581
18.688622 31.726277 -27.467916
18.465077 31.889001 -27.490170
18.655845 31.868989 -26.776777
18.923497 31.716802 -26.779606
18.815100 31.829633 -26.555317
19.038365 31.718811 -26.556450
19.104261 31.645667 -26.715544
19.213014 31.627175 -26.603720
19.429210 31.630478 -26.273887
19.458778 31.692788 -26.012004
19.271519 31.733078 -26.157689
19.587039 31.602217 -25.571728
19.457347 31.776246 -25.618164
19.566176 31.668216 -25.806611
18.470180 30.010288 -26.527541
18.539642 29.913250 -26.726653
18.324401 29.853727 -26.759608
16.767248 29.867450 -28.964451
16.961071 29.742567 -28.929119
17.003094 29.931783 -29.087561
20.008366 29.922129 -29.365243
20.173127 30.060080 -29.531875
19.932563 29.946808 -29.607485
19.620019 31.426605 -25.560279
19.520480 31.487690 -25.384343
19.431384 30.704707 -25.910296
19.193283 30.708683 -25.779454
19.396035 30.865696 -25.720601
19.779557 29.985715 -29.835165
19.745859 30.135110 -30.006238
19.551872 30.058307 -29.964595
16.729313 31.014843 -29.395174
16.854537 30.741969 -29.354834
16.982637 30.929849 -29.428807
16.913253 31.168810 -29.466118
16.708892 31.247131 -29.447210
19.703261 31.487529 -25.732242
19.835761 31.566808 -30.189057
19.646742 31.592993 -30.140320
19.690026 31.330193 -30.213344
18.591348 31.824584 -27.228250
18.817074 31.673958 -27.257424
18.740336 31.768577 -26.999300
19.114732 31.593705 -26.897229
19.302132 31.535146 -26.792277
19.769404 31.750603 -30.097533
19.602129 31.575653 -26.176370
19.694623 31.550446 -25.965500
20.130586 31.795124 -29.706576
19.942993 31.963917 -29.713581
19.929944 31.886364 -29.940998
17.127970 30.086550 -29.211800
16.929947 30.132043 -29.171121
16.989399 30.537181 -29.333528
20.296912 30.982256 -28.337574
20.266228 30.984485 -28.086264
20.106662 31.037360 -28.265974
18.721065 30.003989 -26.631041
18.711425 29.890861 -26.829880
19.402997 31.561898 -26.542707
19.636338 31.503362 -26.376289
20.836681 31.035629 -29.011933
20.746271 31.002942 -28.796341
20.601366 31.129241 -29.000033
18.973746 31.630779 -27.034609
20.872701 30.488743 -28.540918
20.696677 30.288161 -28.503132
19.061515 31.332462 -24.957190
19.135864 31.493044 -24.829036
19.251984 31.455884 -24.997623
18.998196 31.005571 -25.311018
18.811651 30.916136 -25.308168
18.813652 31.037325 -25.151701
18.517104 29.791429 -26.946347
20.661613 30.323115 -29.069661
20.240784 30.056490 -29.272600
20.392093 30.180475 -29.387896
19.827510 30.316914 -30.102995
19.573915 30.307754 -30.102963
17.186291 30.860016 -29.460836
17.038926 30.736419 -29.397685
17.514734 30.761528 -24.870681
17.630430 30.675990 -25.052128
17.448878 30.589415 -25.107894
19.594221 31.008820 -30.209069
19.813658 31.125128 -30.257973
19.965739 31.725210 -30.101386
20.160515 31.726925 -29.997685
18.938632 30.103395 -26.542534
18.942736 29.951453 -26.808435
20.009344 30.045855 -29.760930
17.062800 30.297892 -29.278165
17.264927 30.216849 -29.308603
17.207969 30.430031 -29.361930
17.301336 31.256665 -29.560933
17.086922 31.290696 -29.524394
17.144655 31.097147 -29.498644
17.337218 30.023995 -29.249866
17.217304 29.919360 -29.152866
20.897246 30.501960 -29.008609
20.356856 30.203849 -29.610520
19.660658 31.427038 -26.612767
19.893350 30.520264 -30.177025
19.812209 31.353188 -25.869594
19.697776 31.283436 -25.677864
17.419151 30.356055 -29.400074
17.420642 31.427974 -29.618375
17.217292 31.426773 -29.575782
17.396810 32.569107 -29.827557
17.132539 32.513430 -29.777086
17.344146 32.306267 -29.776105
19.322244 30.188142 -30.000646
19.108456 30.319333 -29.939110
19.103212 30.011573 -29.833295
20.059962 31.560150 -30.181526
19.665608 30.750032 -26.027786
19.687410 30.602512 -26.219413
19.500903 30.578472 -26.106922
18.785929 29.816630 -26.999506
17.564845 32.363031 -29.821461
17.525936 32.182470 -29.783014
17.741667 30.336008 -25.642237
17.694318 30.447943 -25.441117
17.914290 30.459808 -25.519400
19.806200 30.945214 -25.987559
19.623068 30.896324 -25.844369
19.017035 29.868214 -26.999037
20.936468 30.719671 -28.559203
20.961257 30.567251 -28.730726
17.683237 31.427726 -29.670263
17.513601 31.601957 -29.669560
17.681606 32.584477 -29.876073
19.931719 31.334976 -30.252281
18.895908 31.596473 -27.470655
18.969454 31.537980 -27.663833
19.121083 31.471652 -27.494864
14.811075 34.008536 -29.401573
14.726481 34.218766 -29.279179
14.584442 34.019376 -29.305646
17.471634 30.159188 -29.350240
20.766643 31.126595 -29.186656
20.580513 30.310367 -29.305235
20.750762 30.431343 -29.211628
19.035045 31.163722 -25.143174
17.446972 30.769753 -29.505902
17.701283 30.719044 -29.556741
17.648317 30.967802 -29.585647
18.874947 31.611236 -28.060764
18.759068 31.663112 -27.740446
18.653415 31.753669 -27.992340
19.953779 30.718215 -30.217779
19.862602 30.908421 -30.252974
20.035468 31.099176 -30.251566
20.532756 30.325623 -29.520739
19.873224 30.661546 -26.346082
19.890306 30.518903 -26.558560
19.707421 30.481214 -26.396256
17.838426 32.111242 -29.812521
17.682076 32.180989 -29.805812
17.625842 31.989471 -29.762229
19.848082 31.294528 -26.720942
19.654033 31.362964 -26.847062
20.616495 31.222177 -29.215723
20.511891 31.368640 -29.400983
20.740838 31.217531 -29.372658
13.039439 31.356085 -29.008956
13.256057 31.241476 -29.011170
13.248836 31.385323 -29.018387
20.603497 30.653474 -27.501753
20.509238 30.788147 -27.391886
20.544144 30.872188 -27.544981
20.944586 30.947069 -28.842896
20.986601 30.915101 -29.036542
20.026928 30.753194 -26.522589
20.005135 30.892800 -26.356509
19.687480 30.341417 -26.584944
19.519204 30.224351 -26.633432
19.453977 30.320598 -26.440515
18.262856 31.799211 -24.149199
18.324304 31.649232 -24.268366
18.120347 31.667727 -24.187734
17.236539 32.439426 -23.190535
17.156280 32.589216 -23.043756
17.345405 32.621728 -23.171540
20.700267 30.452106 -29.408961
18.155000 32.155725 -27.344148
18.344058 32.008052 -27.253934
18.109037 32.209727 -27.136482
20.019283 30.383500 -30.086951
19.317611 31.355623 -27.881129
19.518415 31.269335 -27.777723
19.334555 31.355601 -27.625818
20.269268 31.046357 -30.162131
20.219620 31.329676 -30.193042
19.113572 31.466394 -28.009722
18.965892 31.537394 -27.846009
19.998091 31.153079 -26.819143
19.860199 31.227133 -26.982105
19.206763 29.972357 -26.887666
19.216540 29.859778 -27.121711
18.259109 30.977549 -24.924022
18.239524 30.834445 -25.110451
18.005939 30.844626 -24.979831
20.015436 31.134155 -26.393913
19.957884 31.033132 -26.176241
19.936189 31.276652 -26.223124
20.164074 31.158360 -28.681928
20.033943 31.298991 -28.790876
20.226584 31.233918 -28.859563
17.817137 32.345580 -29.852571
18.013107 32.222745 -29.851173
18.095612 32.414718 -29.891551
18.756103 31.972212 -28.680035
18.718208 31.873632 -28.492985
18.552620 32.061975 -28.576925
19.102809 31.512491 -28.236169
20.110010 30.858258 -30.204270
20.141106 30.599687 -30.126801
19.132046 31.447293 -27.741391
19.624851 31.309971 -27.100552
19.775405 31.221339 -27.236428
17.137173 32.210495 -29.726219
17.107560 31.976521 -29.675079
17.368154 32.047660 -29.732245
19.869833 30.355174 -26.762344
19.648739 30.183847 -26.799762
14.682801 33.651019 -29.411096
14.460110 33.823378 -29.299339
14.521535 33.590333 -29.358026
20.265809 31.544083 -30.099171
20.689124 31.312662 -29.565815
20.996554 30.807950 -28.716199
21.040414 30.743677 -28.898304
20.326081 30.813664 -30.082637
20.411287 31.567304 -29.728833
20.562041 31.436410 -29.634984
20.430569 31.500217 -29.559297
18.210350 32.186065 -29.869393
18.077429 31.997496 -29.820771
18.541104 32.029743 -26.417325
18.713607 31.928752 -26.389594
18.590621 32.052223 -26.228063
19.566521 31.291556 -27.316725
20.214490 30.382101 -29.974519
13.614001 30.236045 -26.847140
13.689692 30.139815 -27.044374
13.476952 30.205067 -27.070465
20.380195 31.579095 -29.931897
20.119139 30.337831 -27.087249
20.263404 30.287617 -27.325408
19.972452 30.108352 -27.273023
20.804778 30.646542 -29.482257
20.858830 30.576084 -29.295871
20.645899 30.503018 -29.596871
20.456732 30.390335 -29.758369
20.207290 30.173758 -29.777259
20.387864 30.611484 -29.963581
20.049392 31.096428 -27.022019
17.844944 31.068485 -29.642084
18.038506 31.149158 -29.688652
17.880978 31.280923 -29.682737
18.216705 32.231757 -23.915954
18.058883 32.101369 -23.929632
18.048596 32.388628 -23.805000
18.339404 32.714268 -29.930816
18.203636 32.904588 -29.900895
18.085101 32.677855 -29.923644
20.450499 31.036913 -30.030281
19.551216 31.272589 -27.512438
19.731230 31.197950 -27.636054
19.715213 31.221788 -27.426588
20.533344 30.817097 -29.912151
20.629223 31.050544 -29.866347
20.530188 31.240737 -29.967166
20.797229 31.103580 -29.611384
20.572825 30.627375 -29.791615
19.178256 30.231383 -26.434099
19.340733 30.195767 -26.571741
16.873042 31.392859 -29.507878
16.674698 31.448612 -29.491496
20.079589 31.027088 -26.708897
20.109150 30.988872 -26.853842
18.222375 30.258876 -25.984777
18.398682 30.361951 -25.896753
18.373868 30.222282 -26.116727
17.852152 30.001975 -29.398327
18.031226 30.025447 -29.456185
17.885714 30.221445 -29.487217
20.691364 30.835460 -29.752506
17.964548 30.697612 -29.608121
17.801549 30.474023 -29.530799
18.317336 31.978473 -29.853461
18.479634 32.161558 -29.902151
18.034620 32.479410 -26.154792
18.274397 32.289244 -26.184105
18.203808 32.427667 -25.958086
20.722201 30.694363 -29.645618
20.665225 31.293345 -29.757290
20.522824 31.450835 -29.864901
20.405358 31.416125 -30.053696
[...]
POINT_DATA 2095
VECTORS Displacement float
-0.093901 0.095927 0.148489
-0.084465 0.122068 0.162748
-0.098245 0.122512 0.160592
-0.175979 0.079536 -0.159090
-0.156794 0.084155 -0.159115
-0.168905 0.066907 -0.168102
-0.229806 -0.010441 -0.014236
-0.226134 -0.009048 -0.011151
-0.220975 -0.019504 -0.002081
-0.113359 0.182965 -0.102652
-0.144165 0.169886 -0.115404
-0.127517 0.182296 -0.100546
0.114762 0.220330 0.163002
0.124292 0.234690 0.165165
0.110598 0.238856 0.179960
-0.200438 0.089004 0.035563
-0.208443 0.081325 0.015405
-0.209167 0.050343 0.017073
-0.090363 0.051047 -0.072019
-0.108022 0.054723 -0.088384
-0.076777 0.053399 -0.080930
-0.103045 0.063411 -0.129923
-0.139197 0.062098 -0.135394
-0.121600 0.065267 -0.146083
-0.150665 0.062689 -0.149450
-0.160961 0.060133 -0.141556
-0.172414 0.058725 -0.148380
-0.190010 0.053822 -0.163613
-0.186178 0.053112 -0.174396
-0.169819 0.059422 -0.171111
-0.190739 0.051683 -0.174472
-0.174847 0.052454 -0.188236
-0.191876 0.049484 -0.176389
-0.067080 0.206612 -0.056259
-0.067942 0.210250 -0.043047
-0.043701 0.218073 -0.025892
0.116252 0.266650 0.190151
0.105229 0.273433 0.200219
0.103306 0.266317 0.203661
-0.148666 0.158371 0.108043
-0.156427 0.135620 0.109575
-0.134963 0.161192 0.131185
-0.197419 0.057795 -0.163121
-0.184580 0.060410 -0.168857
-0.188784 0.120893 -0.139804
-0.166283 0.134617 -0.138746
-0.185935 0.110204 -0.144399
-0.115657 0.166485 0.155165
-0.108559 0.154990 0.164138
-0.092672 0.172193 0.173895
0.110587 0.180657 0.140774
0.103763 0.204531 0.158834
0.093063 0.186051 0.151507
0.097147 0.164890 0.137718
0.112108 0.159869 0.130610
-0.205361 0.048571 -0.163658
-0.080061 0.002192 0.086957
-0.070642 0.008507 0.088420
-0.079126 0.027907 0.105144
-0.096648 0.057716 -0.101250
-0.126674 0.057442 -0.104976
-0.116836 0.060723 -0.118900
-0.163632 0.058295 -0.131771
-0.184532 0.055054 -0.139223
-0.072304 -0.007403 0.077033
-0.204729 0.047247 -0.163430
-0.208223 0.044654 -0.164900
-0.105786 -0.033624 0.053476
-0.085993 -0.031717 0.054481
-0.080144 -0.023864 0.064898
0.094530 0.256850 0.204300
0.106253 0.254057 0.194521
0.097201 0.221819 0.175428
-0.226812 0.011544 -0.035626
-0.235928 0.013015 -0.055936
-0.219362 0.019240 -0.044626
-0.091865 0.201111 -0.064359
-0.083225 0.206539 -0.045520
-0.192597 0.053602 -0.151493
-0.212438 0.045338 -0.155211
-0.201681 -0.025629 0.019033
-0.213671 -0.019642 0.004941
-0.197666 -0.020241 0.015033
-0.146946 0.058921 -0.121691
-0.218301 0.018457 -0.002282
-0.216277 0.056039 -0.000468
-0.136415 0.083338 -0.159110
-0.135964 0.068156 -0.167864
-0.152484 0.069916 -0.167277
-0.142096 0.115329 -0.146082
-0.122451 0.127364 -0.140232
-0.119352 0.115075 -0.143899
-0.057504 0.216171 -0.020853
-0.197713 0.064585 0.042361
-0.170784 0.130710 0.085300
-0.175593 0.106925 0.083496
-0.111910 0.132086 0.158395
-0.090915 0.146246 0.171263
0.079009 0.189084 0.159036
0.091074 0.203281 0.164385
0.007866 0.123372 -0.089919
-0.001330 0.134410 -0.087972
0.012122 0.139785 -0.078606
-0.081021 0.064380 0.129569
-0.091158 0.041872 0.115773
-0.083539 -0.014810 0.074386
-0.097715 -0.025625 0.067185
-0.120232 0.189205 -0.086666
-0.110436 0.196447 -0.064365
-0.136644 0.147745 0.135730
0.095900 0.241508 0.191965
0.083873 0.245851 0.201703
0.084131 0.228769 0.187830
0.067964 0.148135 0.135633
0.084378 0.150504 0.133594
0.080145 0.167353 0.144144
0.081782 0.258805 0.211766
0.090396 0.266440 0.211866
-0.200346 0.021740 0.026409
-0.164556 0.107851 0.100820
-0.218458 0.043462 -0.146033
-0.112550 0.105736 0.148325
-0.217409 0.046412 -0.153706
-0.207176 0.059864 -0.154136
0.070949 0.231345 0.195474
0.059558 0.128226 0.126275
0.075208 0.134727 0.127382
0.099890 0.042493 0.087657
0.113161 0.051470 0.091186
0.089654 0.060133 0.095705
-0.071244 0.170858 0.181746
-0.053956 0.167167 0.179210
-0.053812 0.197427 0.186995
-0.092562 -0.007850 0.081026
-0.208908 0.099968 -0.140014
-0.209110 0.110488 -0.135887
-0.193303 0.126528 -0.135778
-0.084929 0.207170 -0.034994
0.077755 0.049869 0.091561
0.071564 0.062930 0.097414
-0.009267 0.172492 -0.067563
-0.006318 0.159657 -0.074483
-0.026090 0.163892 -0.084500
-0.220100 0.072986 -0.141941
-0.205368 0.091676 -0.143631
-0.111235 0.197286 -0.052563
-0.220868 -0.009471 -0.003797
-0.210357 0.005049 0.007926
0.039363 0.118074 0.123063
0.054599 0.109143 0.117560
0.083694 0.033923 0.084573
-0.091719 0.016424 0.098481
-0.134008 0.054427 -0.093145
-0.138554 0.051020 -0.081967
-0.159583 0.052148 -0.096336
0.286625 -0.102536 0.169373
0.293319 -0.117066 0.178379
0.297658 -0.118876 0.178946
0.070866 0.246612 0.207340
-0.189843 -0.026995 0.027956
-0.186513 0.076233 0.063735
-0.193262 0.046257 0.046028
-0.141145 0.099578 -0.151926
0.061228 0.191347 0.166802
0.043417 0.188156 0.169241
0.043283 0.164698 0.151647
-0.114547 0.042364 -0.052436
-0.111668 0.050288 -0.071854
-0.090615 0.044131 -0.051960
-0.112079 0.079585 0.135179
-0.100302 0.062679 0.128174
-0.105868 0.033424 0.108266
-0.175756 0.080377 0.080839
-0.224124 0.089654 -0.134418
-0.222706 0.100697 -0.128540
-0.207921 0.119086 -0.130844
0.046474 0.055858 0.094621
0.060624 0.057411 0.095212
0.056558 0.073129 0.101929
-0.234682 0.036172 -0.138858
-0.219933 0.043236 -0.136838
-0.182195 -0.026777 0.027823
-0.161791 -0.030740 0.037083
-0.176038 -0.030331 0.037458
0.369261 -0.011685 0.065356
0.344443 0.011624 0.048970
0.356064 0.001977 0.058587
-0.247797 0.015926 -0.073747
-0.253038 0.012053 -0.086314
-0.253344 0.000412 -0.078519
-0.209386 -0.027269 0.010896
-0.199601 -0.024001 0.022042
-0.237628 0.067706 -0.131811
-0.236935 0.058400 -0.135891
-0.201480 0.132383 -0.122756
-0.182204 0.153149 -0.113768
-0.181377 0.150302 -0.121585
-0.022156 0.051289 -0.166101
-0.035704 0.059968 -0.158434
-0.014647 0.058373 -0.151966
0.074161 0.011574 -0.187465
0.083120 0.002884 -0.198844
0.077695 0.005272 -0.200560
-0.184467 0.051194 0.060761
-0.029600 0.054675 -0.080752
-0.059958 0.056448 -0.092566
-0.022337 0.057973 -0.092418
-0.126183 0.113800 0.144051
-0.168611 0.042977 -0.073671
-0.191915 0.040465 -0.083877
-0.178955 0.046999 -0.091682
-0.124168 0.025443 0.097431
-0.109820 0.002024 0.086242
-0.142572 0.042406 -0.060878
-0.132792 0.047506 -0.069391
-0.245191 0.032921 -0.132057
-0.236499 0.035267 -0.129295
-0.137463 0.184843 -0.076234
-0.129140 0.189722 -0.056289
-0.056109 0.117951 -0.126578
-0.057424 0.132755 -0.120549
-0.032739 0.126274 -0.111469
-0.240636 0.038645 -0.139287
-0.232884 0.052668 -0.140159
-0.232789 0.037748 -0.145876
-0.197274 0.001740 -0.012672
-0.177543 -0.004391 -0.007224
-0.187284 -0.009318 0.000163
0.060263 0.042120 0.088671
0.040393 0.041455 0.088773
0.047088 0.027882 0.083551
-0.062203 0.015388 -0.007465
-0.072608 0.025168 -0.019515
-0.044420 0.021525 -0.008975
-0.130809 0.035309 -0.044531
-0.119310 0.054942 0.118070
-0.129906 0.082213 0.128401
-0.154346 0.048207 -0.080109
-0.216951 0.043729 -0.125448
-0.228105 0.037261 -0.118472
0.099827 0.072005 0.100319
0.094140 0.090479 0.107879
0.077446 0.077840 0.103545
-0.215233 0.116726 -0.118856
-0.190239 0.147253 -0.108838
0.289799 -0.092319 0.162096
0.303490 -0.117778 0.175039
0.298965 -0.099533 0.164226
-0.107009 -0.017783 0.073271
-0.160524 -0.031762 0.046715
-0.213254 -0.020350 0.005099
-0.203414 -0.015177 0.015404
-0.137381 0.046336 0.104337
-0.130187 -0.033704 0.053933
-0.147441 -0.033710 0.049484
-0.143269 -0.033717 0.045197
0.025750 0.035135 0.086593
0.024871 0.053004 0.093371
-0.078804 0.067057 -0.148175
-0.103807 0.067248 -0.153606
-0.080621 0.068277 -0.160837
-0.208921 0.044544 -0.113775
-0.142790 0.101299 0.126619
0.253699 0.099855 -0.088260
0.240608 0.106485 -0.072726
0.256248 0.087233 -0.065335
-0.118295 -0.028595 0.063597
-0.227539 0.095369 -0.102751
-0.229004 0.085983 -0.085792
-0.206152 0.128448 -0.085377
-0.181678 0.023058 0.055257
-0.189730 0.022616 0.043771
-0.175299 0.052682 0.073871
-0.163032 0.081465 0.098569
-0.149890 0.122442 0.121859
-0.149664 0.064016 0.105581
-0.247992 0.029872 -0.123781
0.027356 0.146315 0.141884
0.012294 0.128942 0.132552
0.023722 0.123277 0.127637
0.004795 0.033643 -0.200346
0.012217 0.037931 -0.182568
0.028204 0.028372 -0.207600
0.056196 0.008032 0.079016
0.079764 0.007112 0.079895
0.067099 0.017345 0.080044
-0.138799 0.014487 0.084081
-0.203216 0.043111 -0.101962
-0.215530 0.035150 -0.095046
-0.219713 0.037912 -0.108112
-0.153744 0.030903 0.085151
-0.152523 0.000256 0.068947
-0.137488 -0.009937 0.070066
-0.167529 -0.018880 0.050984
-0.163925 0.047325 0.084915
-0.151456 0.171817 -0.108801
-0.164933 0.165833 -0.108859
0.100958 0.145041 0.127578
0.115902 0.142088 0.123096
-0.247989 0.037812 -0.131603
-0.250150 0.036728 -0.126958
-0.053275 0.189124 -0.080723
-0.074582 0.181349 -0.098347
-0.067568 0.192818 -0.082273
0.046548 0.247925 0.211727
0.033074 0.240353 0.207385
0.040486 0.229655 0.201317
-0.165264 0.016140 0.068906
0.024352 0.179988 0.166921
0.041251 0.209177 0.186099
0.008464 0.043027 0.089561
0.008366 0.024842 0.083051
0.012280 0.067190 -0.152008
-0.028197 0.067756 -0.156395
-0.006108 0.067733 -0.170514
-0.173101 0.027037 0.066718
-0.150425 -0.025145 0.056390
-0.133424 -0.028035 0.060601
-0.121058 -0.016225 0.071696
-0.203640 0.020191 -0.036885
-0.189437 0.011315 -0.023318
-0.210243 0.013205 -0.028432
-0.064905 0.043231 -0.046676
-0.083516 0.047473 -0.059948
-0.060177 0.048370 -0.061120
-0.187534 0.049321 -0.107193
-0.192855 -0.021291 0.030299
-0.194914 -0.007255 0.028687
0.334833 0.022219 0.044892
0.322715 0.029395 0.032858
0.041559 0.254178 0.212739
0.024159 0.163964 -0.060196
0.036515 0.163031 -0.062814
0.025807 0.151748 -0.068899
0.272861 -0.065607 0.144788
0.286086 -0.071960 0.149208
-0.181825 -0.021389 0.039860
-0.186478 -0.001878 0.041388
0.064662 0.001544 0.079704
0.077896 -0.000403 0.080821
-0.177045 0.001824 0.052543
0.113837 0.269509 0.171447
0.104330 0.274660 0.189420
0.115616 0.270404 0.184931
-0.158088 0.115124 -0.146260
-0.136227 0.133940 -0.139457
-0.043794 0.051763 -0.071999
-0.074441 0.100989 0.150705
-0.246214 0.051547 -0.128862
-0.017944 0.016945 0.079462
-0.017599 0.002479 0.073145
0.000657 0.010750 0.077779
-0.040034 0.157925 0.168625
-0.022793 0.161675 0.163432
-0.023245 0.184927 0.178673
-0.183826 0.153390 -0.068755
-0.160615 0.172170 -0.053924
-0.178974 0.158345 -0.080166
-0.160098 0.098925 -0.152232
0.356719 0.000006 0.064280
0.217231 -0.011292 0.089977
0.231814 -0.024785 0.099177
0.223813 -0.016343 0.098579
-0.007749 0.057335 0.095507
0.008300 0.061708 0.097030
0.003500 0.082360 0.106591
0.037417 0.009419 0.078863
0.046705 0.015989 0.080210
-0.017524 0.063881 -0.220784
-0.045219 0.065506 -0.207633
-0.049912 0.061804 -0.228174
-0.206498 0.033063 -0.077297
-0.249197 0.047275 -0.120767
-0.236131 0.079078 -0.124688
0.040118 0.092323 0.110376
0.124635 0.048664 -0.054943
0.102251 0.054060 -0.071643
0.128542 0.050601 -0.071987
-0.206205 0.130070 -0.103635
-0.148799 0.179618 -0.059857
0.007329 0.198013 0.182502
0.024713 0.205148 0.185731
0.022735 0.222586 0.197538
-0.004229 0.036931 0.087176
0.056629 0.246782 0.210632
0.056769 0.230918 0.199459
-0.063862 0.006747 -0.000295
-0.067088 -0.002223 0.006342
-0.081624 0.004879 -0.003424
-0.156016 0.036924 -0.055329
-0.144500 0.027197 -0.037120
0.025195 0.058776 -0.086523
0.047329 0.056564 -0.074027
0.021523 0.055582 -0.073474
0.070751 0.018516 -0.173613
0.081134 0.009452 -0.188997
-0.128125 0.012191 -0.018062
-0.152246 0.018023 -0.027689
-0.078724 -0.032365 0.048759
-0.068820 -0.027443 0.059199
-0.020547 0.034839 0.086666
0.002933 0.031982 -0.305441
0.014461 0.028109 -0.305621
0.025682 0.035058 -0.317681
0.059001 -0.004665 0.078266
0.047413 0.000355 0.077987
0.037072 -0.005664 0.075039
-0.227431 0.097561 -0.114228
-0.070347 0.039098 -0.038550
-0.059111 0.032185 -0.025378
-0.087148 0.036864 -0.037448
0.030095 0.020102 0.081592
0.018026 0.013085 0.079426
0.094989 0.052273 -0.058405
0.122484 0.045760 -0.037105
0.084879 0.049759 -0.044687
0.021219 0.000521 0.075375
0.010204 0.155204 -0.069136
0.049107 -0.006817 0.068155
0.038470 -0.009199 0.071645
0.023040 -0.011640 0.060511
-0.127293 -0.033992 0.047626
-0.143061 -0.031625 0.037293
-0.124602 -0.033425 0.039189
-0.144190 0.145415 -0.135323
-0.117682 0.152825 -0.129933
-0.001984 0.132382 0.136901
0.017341 0.153543 0.148479
0.007992 0.159860 0.154675
-0.116820 0.022942 -0.026224
-0.086336 0.017482 -0.014823
-0.103281 0.009509 -0.011814
-0.179633 0.036088 -0.064412
-0.027565 0.069098 -0.145305
-0.006522 0.067051 -0.136623
-0.248958 0.023354 -0.113919
-0.254624 0.019381 -0.106609
-0.252971 0.029175 -0.117455
-0.040749 0.042505 -0.041986
-0.047339 0.037440 -0.031722
-0.241143 0.068305 -0.113514
-0.106458 0.142525 -0.132256
-0.171189 0.163629 -0.046620
0.223491 0.133823 -0.195728
0.201289 0.154656 -0.187834
0.213074 0.148019 -0.172316
0.005833 0.216155 0.193480
-0.007744 0.192274 0.180343
-0.004644 0.152897 0.151938
0.008426 0.177436 0.167640
-0.002513 0.104885 0.119313
-0.015952 0.106231 0.122583
-0.014768 0.080948 0.107524
0.215306 -0.004920 0.097731
0.228225 -0.018195 0.104402
0.278722 -0.090702 0.158825
0.284128 -0.100334 0.165566
0.261304 -0.000482 -0.015081
0.236884 0.011963 -0.017254
0.236221 0.014006 -0.038014
-0.004984 0.145618 -0.082919
-0.017955 0.137114 -0.096310
-0.022921 0.151315 -0.090645
0.024664 0.115708 -0.088730
0.022078 0.128398 -0.083211
0.031035 0.165742 0.154942
-0.173008 0.027743 -0.044195
-0.196707 0.138608 -0.065423
-0.244423 0.044092 -0.134312
0.120528 0.035747 0.084154
0.110586 0.027649 0.081404
0.021852 0.246172 0.205873
0.004206 0.230783 0.198785
0.017714 0.232450 0.202036
-0.007175 0.170456 0.165313
-0.074676 0.201599 0.174433
-0.077905 0.187386 0.179836
-0.007329 0.023043 0.082025
0.214468 0.021525 -0.020116
0.217948 0.021402 -0.032414
0.136572 0.170950 -0.183392
0.120703 0.179785 -0.151338
0.138085 0.181732 -0.164255
-0.090012 -0.004523 0.002093
-0.111688 0.000248 -0.005934
-0.163254 0.032379 -0.049978
-0.196401 0.029533 -0.057407
-0.217579 0.026467 -0.067882
0.277546 0.024585 0.019389
0.303506 0.010416 0.036121
0.282608 0.015605 0.029553
0.216573 0.089163 -0.025381
0.216686 0.095088 -0.026326
0.224263 0.073496 -0.020150
0.029979 0.138811 -0.077842
-0.115567 0.178129 0.146856
0.231558 0.055680 -0.009540
0.224193 0.069183 -0.016895
-0.204168 0.049468 -0.141865
-0.201833 0.049652 -0.132396
-0.224115 0.027474 -0.014926
-0.227201 0.001812 -0.014217
-0.116247 -0.033278 0.056763
-0.127212 0.057445 -0.212467
-0.150539 0.058745 -0.195927
-0.155805 0.051490 -0.202562
0.051843 0.145577 0.137105
0.243085 0.044140 0.001455
0.230960 0.061871 -0.012364
0.234494 0.049989 -0.003523
-0.011655 0.048599 -0.289017
0.020174 0.053343 -0.282466
-0.013958 0.053969 -0.272061
0.056482 0.258560 0.216040
0.051320 0.263729 0.213948
0.162194 0.144052 -0.236995
0.183239 0.132764 -0.257962
0.175016 0.128200 -0.258660
0.113463 0.045665 -0.247206
0.095587 0.046217 -0.278726
0.118427 0.039882 -0.270245
0.188185 0.148828 -0.228338
0.188790 0.156375 -0.209297
0.207677 0.137019 -0.229631
-0.164023 0.168407 -0.099330
-0.162678 0.170491 -0.083760
-0.221914 0.039968 -0.154549
-0.223841 0.040619 -0.152564
-0.188395 0.099047 0.060873
0.242368 0.040253 0.003678
0.257626 0.028010 0.016010
0.249013 0.034118 0.010580
0.227725 0.083391 -0.024096
0.144365 0.206289 0.005952
0.146870 0.205826 -0.018863
0.134021 0.211306 0.001203
0.230427 0.073456 -0.021753
0.221169 0.082394 -0.024124
0.290464 0.037451 0.012194
0.314185 0.024729 0.028018
0.311119 0.019645 0.029636
0.036702 0.138609 0.135369
0.212881 0.102385 -0.030041
0.048422 0.128594 -0.091740
0.035268 0.127980 -0.084864
0.043276 0.139483 -0.083033
-0.014818 0.210900 0.190371
-0.198793 0.084255 -0.148816
-0.214447 0.066023 -0.146637
-0.019827 0.141126 0.147581
-0.015920 0.125974 0.135438
0.221489 0.045875 0.099075
0.215237 0.036949 0.101505
0.231789 0.022199 0.105225
-0.028708 0.079816 0.109901
-0.025420 0.058618 0.097738
0.303988 0.039645 0.018519
0.336326 0.014353 0.042293
-0.197147 0.049508 -0.120377
0.145458 0.042970 -0.039992
0.153623 0.038902 -0.023971
0.188825 0.068170 0.099337
0.203762 0.059070 0.098681
0.192737 0.079594 0.097857
-0.253581 0.021498 -0.097177
-0.251618 0.037531 -0.110114
-0.244640 0.051454 -0.097768
-0.126850 0.139422 0.148624
-0.064230 0.034097 -0.270985
-0.051825 0.028174 -0.269750
-0.046032 0.035305 -0.282189
-0.067835 -0.011128 0.014192
-0.069211 0.063467 -0.125296
-0.058070 0.065828 -0.137466
-0.033909 0.063815 -0.122394
-0.103391 0.049727 -0.181462
-0.083205 0.042542 -0.190144
-0.095811 0.036331 -0.198657
-0.088091 0.189296 -0.092247
-0.081521 0.196435 -0.079433
-0.131307 0.051445 -0.180092
-0.118991 0.038377 -0.193729
0.004272 0.038615 -0.308598
0.041314 0.041470 -0.318114
0.020630 0.047210 -0.303290
-0.175589 0.055095 -0.124732
0.109299 0.019281 0.079466
0.096184 0.025318 0.081152
0.086948 0.021080 0.080313
-0.010629 0.043221 -0.298945
0.334838 -0.007878 0.086627
0.342749 -0.004440 0.079457
0.317878 0.019387 0.071126
0.220403 0.094872 -0.032218
-0.020889 0.061267 -0.106786
-0.000100 0.062711 -0.110349
-0.127313 0.003093 0.081880
0.276931 -0.011317 0.004845
0.293561 -0.022286 0.011539
0.289804 -0.022048 0.026853
-0.132430 0.050397 -0.219271
-0.149714 0.046504 -0.208177
-0.132692 0.040975 -0.221807
-0.012574 0.231195 0.193457
-0.089312 0.065861 -0.140762
-0.234822 0.018567 -0.041424
-0.241709 0.015927 -0.056627
-0.243861 0.001431 -0.050049
-0.030867 0.107844 0.128467
0.359915 -0.022132 0.085895
0.353054 -0.026506 0.092281
0.369357 -0.040510 0.094776
0.086980 0.035006 -0.149384
0.083203 0.028305 -0.157953
0.072625 0.032211 -0.144178
-0.038047 0.141558 -0.106073
-0.053656 0.204511 -0.059777
-0.146075 0.005381 -0.015123
0.173847 -0.004485 -0.266241
0.173475 0.008287 -0.256487
0.157131 0.012692 -0.280670
0.100316 0.041035 -0.296007
0.126219 0.033177 -0.284933
0.000377 0.230200 -0.001203
-0.012231 0.219735 -0.023004
-0.020415 0.224751 -0.012260
-0.170335 0.015367 -0.026852
-0.224929 0.021140 -0.058963
-0.234875 0.018473 -0.073748
0.114464 0.259647 0.190763
0.125282 0.256980 0.176705
-0.232109 0.036218 -0.146118
-0.243232 0.034268 -0.137476
-0.156384 0.061188 -0.182460
-0.147533 0.064142 -0.171552
-0.243207 0.015862 -0.088394
-0.227170 0.026516 -0.086349
0.248354 0.067914 0.074168
0.241612 0.088214 0.062197
0.232446 0.083502 0.074616
-0.108016 0.066757 -0.188146
-0.111289 0.067823 -0.170838
-0.131356 0.065609 -0.181617
-0.240335 0.050140 -0.080478
-0.188134 0.146591 -0.045107
-0.164762 0.167507 -0.025020
0.004182 0.057470 -0.084666
-0.135071 0.065566 -0.158814
-0.165303 0.060880 -0.159135
-0.241183 0.030457 -0.119960
-0.035213 0.131054 0.147543
-0.042425 0.076621 0.114295
-0.036431 0.060093 0.101534
-0.035765 0.041766 0.092057
0.057960 0.140692 -0.095236
0.053708 0.151916 -0.083426
0.194721 0.009272 0.087474
0.180168 0.018770 0.084232
0.190520 0.008507 0.081974
-0.113371 0.080009 -0.158495
-0.117955 0.097267 -0.150466
-0.162294 0.124755 -0.142832
-0.179695 0.097472 -0.150167
0.241836 0.115635 0.017187
0.256269 0.097498 0.024496
0.257936 0.097523 0.012634
-0.082232 0.060513 -0.112901
-0.047594 0.060796 -0.109408
-0.106656 -0.010664 0.003709
-0.209717 0.024465 -0.050888
0.208574 -0.002413 0.091387
0.225415 0.018474 -0.108163
0.205404 0.024961 -0.129240
0.233343 0.010633 -0.119227
-0.251999 0.005115 -0.085764
-0.250166 0.015616 -0.101045
0.218221 0.098536 0.076302
0.206218 0.121831 0.073224
0.203904 0.104023 0.084956
-0.079217 0.124130 -0.131978
-0.083487 0.138776 -0.127757
-0.153827 0.055950 -0.109711
-0.175392 0.053064 -0.112492
0.058613 0.212271 0.184166
0.221771 0.080783 0.084226
0.211012 0.082348 0.089870
0.226731 0.058662 0.092625
-0.098801 0.112091 -0.141224
-0.104067 0.127374 -0.137080
-0.113701 0.191036 0.124262
-0.120594 0.189574 0.102324
-0.140033 0.173583 0.101474
0.201211 0.009018 0.093048
0.183290 0.024466 0.089596
0.116308 0.048315 -0.222256
0.097098 0.055209 -0.215902
0.096975 0.052088 -0.238790
0.243365 0.044155 -0.001366
0.239013 0.058451 -0.013004
0.261606 0.049280 -0.004082
0.258349 0.039481 0.002789
0.041577 0.027861 -0.315414
0.059077 0.035805 -0.325377
0.022453 0.101558 0.115499
-0.094446 0.182412 -0.102577
-0.098466 0.170394 -0.115408