# vtk DataFile Version 3.0
3D Unstructured Surface
ASCII
DATASET UNSTRUCTURED_GRID
POINTS 2095 float
19.688872 30.628529 -30.210468
19.525171 30.481165 -30.155640
19.691316 30.408469 -30.166830
19.373611 31.309221 -25.314598
19.208528 31.322215 -25.138038
19.383229 31.487117 -25.167237
20.844451 30.767253 -28.441207
20.685781 30.872913 -28.555682
20.882545 30.847335 -28.641651
18.773913 30.304107 -26.173519
19.048466 30.356568 -26.192223
18.940331 30.233971 -26.340904
16.701993 30.553803 -29.273686
16.576370 30.362806 -29.171898
16.808989 30.332404 -29.225785
20.550894 30.147491 -28.875237
20.594423 30.151793 -28.645716
20.771530 30.292855 -28.765228
18.541605 31.726128 -27.597598
18.651275 31.668963 -27.393012
18.424015 31.827574 -27.416480
18.623234 31.827580 -26.708609
18.895878 31.681111 -26.711709
18.787943 31.798207 -26.492202
19.015786 31.692251 -26.494815
19.081283 31.615331 -26.650614
19.193907 31.602456 -26.543135
19.419652 31.621043 -26.227950
19.453589 31.692684 -25.976372
19.259883 31.724324 -26.112422
19.588347 31.619669 -25.554968
19.457621 31.788294 -25.597745
19.565765 31.677142 -25.781456
18.460430 30.033149 -26.513561
18.530697 29.935287 -26.712284
18.314592 29.877972 -26.749330
16.755115 29.876076 -28.962527
16.947868 29.754755 -28.927768
16.989797 29.938591 -29.088416
20.016465 29.885575 -29.361217
20.183714 30.014653 -29.532955
19.937798 29.909108 -29.607280
19.619883 31.446928 -25.543726
19.520046 31.511154 -25.371966
19.425206 30.723973 -25.886110
19.183897 30.732076 -25.758257
19.388978 30.888091 -25.698937
19.780757 29.948166 -29.837346
19.745008 30.091158 -30.009454
19.548476 30.021850 -29.966567
16.711110 30.996427 -29.400749
16.838264 30.727969 -29.358989
16.963870 30.909153 -29.433632
16.892348 31.143665 -29.471775
16.688371 31.224041 -29.454332
19.704593 31.502779 -25.712608
19.817662 31.488696 -30.163238
19.625414 31.513718 -30.110988
19.673062 31.254501 -30.190830
18.553810 31.770868 -27.154548
18.783299 31.623469 -27.182900
18.707090 31.723246 -26.927319
19.090135 31.557878 -26.828691
19.283217 31.505743 -26.728820
19.747539 31.670124 -30.066719
19.597966 31.573035 -26.138692
19.694665 31.557118 -25.938089
20.112256 31.713367 -29.681750
19.918808 31.879652 -29.680802
19.907977 31.804846 -29.910231
17.113994 30.088335 -29.215267
16.916742 30.133338 -29.172773
16.974019 30.526705 -29.337517
20.304166 30.921507 -28.310930
20.273834 30.930001 -28.055517
20.106892 30.974376 -28.229198
18.712707 30.023924 -26.612701
18.703620 29.910617 -26.813090
19.389407 31.542727 -26.487673
19.630737 31.494487 -26.333057
20.851196 30.976652 -29.017219
20.761928 30.943881 -28.796684
20.608623 31.061005 -28.995415
18.944772 31.588638 -26.962667
20.902993 30.448528 -28.542104
20.725493 30.248443 -28.497703
19.053973 31.364395 -24.956641
19.131575 31.525086 -24.832727
19.248228 31.486433 -24.996065
18.986937 31.035522 -25.300615
18.798894 30.946534 -25.299687
18.801425 31.068673 -25.146738
18.508426 29.814190 -26.934303
20.685856 30.273539 -29.072080
20.254702 30.012104 -29.269484
20.408406 30.130272 -29.389794
19.826338 30.264159 -30.106047
19.568466 30.259828 -30.103334
17.167139 30.837844 -29.465812
17.021706 30.719854 -29.402280
17.501434 30.771601 -24.862070
17.617655 30.689367 -25.043133
17.436331 30.599413 -25.095812
19.580276 30.939298 -30.193664
19.801294 31.052318 -30.242686
19.947251 31.646288 -30.074702
20.144760 31.649004 -29.975532
18.931104 30.120785 -26.520180
18.936329 29.967407 -26.787282
20.015062 30.002020 -29.764055
17.048418 30.293533 -29.281985
17.250095 30.213626 -29.314445
17.192259 30.420295 -29.367499
17.277277 31.222226 -29.564021
17.063662 31.259576 -29.529286
17.123217 31.069498 -29.503300
17.322824 30.027214 -29.255663
17.203323 29.926486 -29.156172
20.924147 30.455243 -29.016288
20.370420 30.151849 -29.615838
19.653422 31.410188 -26.563695
19.890900 30.459907 -30.178004
19.813928 31.366780 -25.848568
19.697284 31.302648 -25.659197
17.403160 30.346711 -29.407941
17.394120 31.387224 -29.618503
17.191829 31.390145 -29.579045
17.366805 32.514555 -29.810869
17.103619 32.464251 -29.771790
17.313377 32.254143 -29.766886
19.314493 30.150846 -30.001150
19.096948 30.281067 -29.937728
19.094825 29.988270 -29.835869
20.045244 31.483449 -30.159922
19.663124 30.765218 -26.002631
19.686117 30.613961 -26.192168
19.496430 30.593808 -26.080555
18.778963 29.835273 -26.983011
17.532879 32.305798 -29.802527
17.494099 32.127471 -29.769166
17.729989 30.354809 -25.633628
17.682379 30.464725 -25.431465
17.902046 30.480903 -25.511778
19.805978 30.959799 -25.964354
19.619528 30.914966 -25.821508
19.011784 29.882245 -26.978110
20.964023 30.677014 -28.563877
20.990528 30.525295 -28.737086
17.655514 31.381506 -29.664835
17.484930 31.555633 -29.665574
17.649750 32.523833 -29.847228
19.918183 31.259582 -30.233369
18.862408 31.541853 -27.395722
18.936451 31.479380 -27.589899
19.092405 31.418788 -27.421609
14.812919 33.973105 -29.426232
14.731182 34.180897 -29.301349
14.589410 33.982952 -29.332173
17.456574 30.156687 -29.358542
20.775785 31.062343 -29.189920
20.600984 30.257831 -29.309524
20.774221 30.379692 -29.218286
19.025228 31.194776 -25.136999
17.427499 30.746152 -29.511857
17.681446 30.693072 -29.563029
17.625942 30.934683 -29.588450
18.837905 31.542325 -27.990279
18.721581 31.600707 -27.666440
18.612793 31.684638 -27.920637
19.949607 30.652198 -30.215296
19.854074 30.839083 -30.244294
20.026796 31.026512 -30.240343
20.550019 30.270962 -29.527435
19.875524 30.668820 -26.318862
19.894284 30.521492 -26.528999
19.707448 30.489091 -26.367426
17.804800 32.049745 -29.787957
17.649280 32.122470 -29.785883
17.593949 31.934351 -29.748235
19.845765 31.277950 -26.677089
19.644747 31.337700 -26.792534
20.620005 31.151713 -29.212720
20.508670 31.293741 -29.393454
20.745683 31.150755 -29.375132
13.018476 31.352399 -29.019700
13.240217 31.240493 -29.024110
13.231073 31.383246 -29.031288
20.626790 30.632134 -27.488146
20.528727 30.766636 -27.374532
20.563690 30.844762 -27.529088
20.964978 30.895989 -28.851050
21.006225 30.863920 -29.046890
20.032656 30.754861 -26.494906
20.009465 30.898000 -26.330719
19.688378 30.346019 -26.554685
19.517883 30.230874 -26.603885
19.450693 30.331047 -26.412035
18.254998 31.818231 -24.157878
18.315667 31.671721 -24.278252
18.110167 31.684930 -24.195636
17.221167 32.427439 -23.175460
17.140742 32.576164 -23.022687
17.331253 32.612782 -23.157382
20.720470 30.397385 -29.416994
18.110445 32.091227 -27.273741
18.302601 31.948814 -27.181997
18.065053 32.147717 -27.067805
20.021163 30.326048 -30.091532
19.291865 31.293646 -27.813599
19.499208 31.211615 -27.713923
19.310727 31.300915 -27.556582
20.265216 30.974906 -30.156132
20.210315 31.255656 -30.179456
19.081877 31.399974 -27.940508
18.931869 31.474292 -27.773530
20.000438 31.137338 -26.780776
19.856973 31.201371 -26.933949
19.202922 29.982603 -26.862531
19.213569 29.868692 -27.097917
18.245691 31.004114 -24.925057
18.225952 30.860826 -25.108287
17.992596 30.866188 -24.977519
20.019546 31.135128 -26.366286
19.960838 31.042059 -26.152310
19.938949 31.280719 -26.196323
20.160867 31.084881 -28.653272
20.023033 31.219851 -28.757827
20.222395 31.157549 -28.835794
17.783370 32.282675 -29.823714
17.978038 32.156038 -29.817649
18.059810 32.344916 -29.850690
18.711708 31.887061 -28.616349
18.675107 31.793122 -28.427325
18.506619 31.979252 -28.511259
19.069350 31.440101 -28.170087
20.106414 30.788915 -30.200483
20.142406 30.535386 -30.129401
19.102305 31.387973 -27.669515
19.613022 31.275433 -27.041081
19.767937 31.184596 -27.181443
17.107433 32.163423 -29.725521
17.078495 31.932722 -29.677496
17.337451 31.997517 -29.726305
19.874937 30.353849 -26.731069
19.650310 30.185564 -26.768982
14.681290 33.619114 -29.439776
14.464327 33.788821 -29.328528
14.521300 33.558970 -29.388231
20.254245 31.468946 -30.082664
20.689600 31.243651 -29.565993
21.022020 30.763328 -28.724606
21.065968 30.699296 -28.908980
20.327426 30.745397 -30.083118
20.401617 31.490974 -29.716431
20.557520 31.363354 -29.629440
20.422585 31.423253 -29.547911
18.174271 32.115092 -29.830414
18.043019 31.931645 -29.790331
18.510909 31.994704 -26.357832
18.686779 31.899550 -26.330768
18.564012 32.023719 -26.174038
19.551553 31.248899 -27.253516
20.220902 30.323484 -29.980889
13.615142 30.235841 -26.807687
13.693533 30.144470 -27.009416
13.476970 30.204653 -27.034491
20.369836 31.504083 -29.918387
20.131213 30.327294 -27.057424
20.280055 30.271541 -27.298616
19.982544 30.096777 -27.241641
20.822645 30.590105 -29.492025
20.880910 30.523842 -29.305641
20.662406 30.445129 -29.605573
20.469581 30.332385 -29.766375
20.216527 30.122740 -29.782940
20.394580 30.547239 -29.968869
20.052942 31.074456 -26.982911
17.820754 31.028541 -29.640329
18.012900 31.102769 -29.680903
17.854178 31.234164 -29.675536
18.211717 32.244144 -23.921964
18.050541 32.111328 -23.933960
18.041902 32.395319 -23.808427
18.302325 32.638982 -29.873624
18.168728 32.832491 -29.840865
18.050216 32.607952 -29.876179
20.449926 30.966951 -30.028016
19.534618 31.223370 -27.448394
19.719973 31.146748 -27.578308
19.704570 31.177364 -27.368177
20.539209 30.750814 -29.916006
20.632088 30.983282 -29.868019
20.527339 31.170228 -29.962968
20.803506 31.040070 -29.616811
20.584034 30.565030 -29.798995
19.171965 30.246167 -26.408324
19.336829 30.206236 -26.543908
16.849981 31.363686 -29.514628
16.652341 31.422134 -29.500260
20.085316 31.019050 -26.677312
20.115809 30.976432 -26.820998
18.210579 30.283706 -25.975785
18.386459 30.387748 -25.886075
18.362487 30.246977 -26.105167
17.838010 30.003148 -29.409687
18.017374 30.023592 -29.468358
17.870197 30.212462 -29.498793
20.700732 30.772117 -29.758986
17.944422 30.667861 -29.612847
17.783921 30.455614 -29.540149
18.282182 31.907397 -29.816658
18.442697 32.085136 -29.857317
17.998783 32.432481 -26.104576
18.242970 32.250704 -26.132275
18.174555 32.390996 -25.913708
20.736073 30.634179 -29.654235
20.664532 31.224612 -29.756686
20.516709 31.378440 -29.857694
20.397619 31.343086 -30.043086
[...]
POINT_DATA 2095
VECTORS Displacement float
-0.085772 0.158771 0.142968
-0.075771 0.177735 0.158640
-0.093016 0.178431 0.159930
-0.171011 0.052679 -0.171502
-0.150128 0.054185 -0.165862
-0.166629 0.039083 -0.174963
-0.254251 0.035647 -0.014393
-0.243781 0.046987 -0.016518
-0.242945 0.030765 0.001451
-0.103213 0.160793 -0.121781
-0.135666 0.150832 -0.138777
-0.119131 0.163529 -0.122996
0.128807 0.227997 0.165986
0.136330 0.236294 0.166398
0.123911 0.242196 0.182085
-0.223794 0.134409 0.031137
-0.234023 0.123107 0.008316
-0.237330 0.094645 0.017028
-0.050205 0.114172 -0.146002
-0.070675 0.112037 -0.163288
-0.035715 0.114826 -0.154620
-0.070434 0.104820 -0.198091
-0.111578 0.097789 -0.203291
-0.094443 0.096693 -0.209198
-0.128086 0.089249 -0.211085
-0.137983 0.090469 -0.206486
-0.153307 0.083444 -0.208965
-0.180452 0.063257 -0.209550
-0.180989 0.053216 -0.210028
-0.158183 0.068176 -0.216378
-0.192047 0.034231 -0.191232
-0.175121 0.040406 -0.208655
-0.191465 0.040558 -0.201544
-0.057330 0.183751 -0.070239
-0.058997 0.188213 -0.057416
-0.033892 0.193828 -0.036170
0.128385 0.258024 0.188227
0.118432 0.261245 0.198868
0.116603 0.259509 0.204516
-0.156765 0.194925 0.104017
-0.167014 0.181047 0.110655
-0.140198 0.198892 0.130980
-0.197283 0.037472 -0.179674
-0.184146 0.036946 -0.181234
-0.182606 0.101627 -0.163990
-0.156897 0.111224 -0.159943
-0.178878 0.087809 -0.166063
-0.116857 0.204034 0.157346
-0.107708 0.198942 0.167354
-0.089276 0.208650 0.175867
0.128790 0.199073 0.146349
0.120036 0.218531 0.162989
0.111830 0.206747 0.156332
0.118052 0.190035 0.143375
0.132629 0.182959 0.137732
-0.206693 0.033321 -0.183292
-0.061962 0.080304 0.061138
-0.049314 0.087782 0.059088
-0.062162 0.103599 0.082630
-0.059110 0.111432 -0.174952
-0.092899 0.107931 -0.179500
-0.083590 0.106054 -0.190881
-0.139035 0.094122 -0.200309
-0.165617 0.084457 -0.202680
-0.050439 0.073076 0.046219
-0.200566 0.049865 -0.201108
-0.208265 0.037982 -0.192311
-0.087456 0.048133 0.028650
-0.061808 0.052548 0.021702
-0.058177 0.057654 0.034131
0.108506 0.255065 0.207767
0.119458 0.252762 0.196173
0.112581 0.232295 0.179417
-0.234066 0.072293 -0.062270
-0.243534 0.067499 -0.086683
-0.219592 0.082224 -0.081402
-0.083507 0.181176 -0.082699
-0.075420 0.186783 -0.062310
-0.179007 0.072773 -0.206527
-0.206837 0.054213 -0.198443
-0.216196 0.033348 0.024319
-0.229328 0.039419 0.005284
-0.204923 0.047995 0.010415
-0.117972 0.101062 -0.193633
-0.248593 0.058672 -0.001096
-0.245093 0.095757 -0.005897
-0.128873 0.051405 -0.159659
-0.131675 0.036114 -0.164173
-0.148728 0.039367 -0.168835
-0.130837 0.085378 -0.156485
-0.109694 0.096966 -0.148713
-0.107125 0.083727 -0.148862
-0.048826 0.193410 -0.032897
-0.221956 0.114161 0.044780
-0.184702 0.175096 0.082184
-0.191906 0.157128 0.085394
-0.110738 0.184841 0.161447
-0.085466 0.194172 0.171634
0.098161 0.211256 0.164012
0.108294 0.219846 0.168980
0.021166 0.113299 -0.098530
0.011445 0.121033 -0.096967
0.024669 0.129787 -0.090688
-0.067076 0.133902 0.114164
-0.078794 0.114682 0.100486
-0.065051 0.064112 0.047702
-0.081960 0.052296 0.045032
-0.112704 0.171815 -0.109020
-0.104029 0.180493 -0.085518
-0.142362 0.191580 0.138855
0.110282 0.245867 0.195785
0.098705 0.249074 0.207545
0.099841 0.238505 0.193399
0.092023 0.182574 0.138721
0.107638 0.181624 0.138486
0.101583 0.195002 0.148800
0.096176 0.255586 0.217563
0.104377 0.259314 0.215172
-0.227247 0.068457 0.034088
-0.178120 0.159851 0.106138
-0.211222 0.060312 -0.195105
-0.110100 0.166093 0.149304
-0.219128 0.032820 -0.174732
-0.206684 0.040652 -0.172803
0.086940 0.240689 0.203341
0.086080 0.168976 0.126403
0.100671 0.171355 0.130645
0.129895 0.097045 0.070969
0.142081 0.100649 0.085890
0.120423 0.112257 0.086486
-0.063493 0.208154 0.182250
-0.042448 0.205433 0.177828
-0.045425 0.220730 0.189569
-0.077844 0.068851 0.059422
-0.206424 0.084782 -0.165169
-0.207817 0.099039 -0.163132
-0.188830 0.111192 -0.162145
-0.077963 0.188527 -0.051489
0.109721 0.107102 0.072627
0.103401 0.117929 0.083566
0.002411 0.153691 -0.076172
0.005621 0.142875 -0.084135
-0.013846 0.142797 -0.092122
-0.219878 0.058401 -0.165146
-0.201828 0.073034 -0.166492
-0.105984 0.183255 -0.073490
-0.248423 0.033186 0.000877
-0.239628 0.047005 0.014286
0.067086 0.164294 0.117635
0.083270 0.155467 0.113574
0.115550 0.094567 0.055728
-0.078183 0.091818 0.079569
-0.100508 0.109047 -0.168078
-0.105551 0.109620 -0.155901
-0.130905 0.105012 -0.169591
0.284781 -0.067105 0.194032
0.288618 -0.079197 0.200549
0.292690 -0.082452 0.205473
0.085926 0.249113 0.215642
-0.198985 0.037257 0.031220
-0.206984 0.128769 0.068024
-0.216721 0.097908 0.052686
-0.131328 0.068524 -0.158101
0.080701 0.214948 0.172757
0.063254 0.214128 0.175529
0.065658 0.197817 0.154450
-0.077505 0.111275 -0.122921
-0.074181 0.112693 -0.145860
-0.049993 0.113162 -0.123663
-0.107907 0.145602 0.132696
-0.091774 0.132017 0.119494
-0.097196 0.106088 0.097043
-0.193019 0.135038 0.087535
-0.226424 0.082380 -0.161638
-0.226684 0.098108 -0.158101
-0.207948 0.111209 -0.159674
0.080100 0.117355 0.070057
0.093420 0.115930 0.075283
0.088451 0.128249 0.087935
-0.232365 0.052750 -0.182711
-0.210647 0.068500 -0.191366
-0.185705 0.043687 0.024820
-0.158570 0.044159 0.029554
-0.180883 0.036445 0.039932
0.390224 -0.007999 0.076100
0.360283 0.012607 0.061910
0.373827 0.004054 0.071488
-0.271090 0.037266 -0.087354
-0.272527 0.033564 -0.103668
-0.272890 0.027838 -0.094412
-0.229778 0.023811 0.019050
-0.219225 0.027180 0.032390
-0.243356 0.066039 -0.159494
-0.241265 0.053200 -0.161681
-0.202378 0.127781 -0.153015
-0.180883 0.146626 -0.143315
-0.178093 0.139853 -0.150065
-0.014298 0.032269 -0.157422
-0.027067 0.037479 -0.148548
-0.004467 0.041170 -0.144064
0.089533 0.023561 -0.202540
0.098658 0.015936 -0.219913
0.091847 0.014218 -0.214718
-0.204670 0.105915 0.068794
0.014955 0.119173 -0.151159
-0.018501 0.115686 -0.164503
0.021647 0.119983 -0.161095
-0.128063 0.171252 0.148632
-0.142865 0.104954 -0.141201
-0.172708 0.098185 -0.147677
-0.155127 0.101685 -0.160918
-0.120116 0.096894 0.091432
-0.100515 0.076044 0.072656
-0.110877 0.108826 -0.130092
-0.098769 0.110608 -0.141870
-0.247538 0.048662 -0.170424
-0.233273 0.061029 -0.177451
-0.133622 0.174597 -0.101369
-0.126169 0.180808 -0.080083
-0.042691 0.091386 -0.125543
-0.043852 0.106374 -0.122713
-0.019396 0.104712 -0.113781
-0.244746 0.037672 -0.166914
-0.235838 0.043741 -0.164090
-0.235549 0.033681 -0.172677
-0.194067 0.075219 -0.041328
-0.166633 0.074749 -0.040273
-0.183095 0.067051 -0.023606
0.094030 0.105025 0.059814
0.075462 0.108162 0.055249
0.082890 0.097684 0.042690
-0.017808 0.100539 -0.071151
-0.029507 0.105678 -0.085175
0.001581 0.104248 -0.074641
-0.097350 0.107699 -0.110613
-0.115714 0.124285 0.114283
-0.131206 0.146514 0.131001
-0.124605 0.107527 -0.151985
-0.205122 0.078267 -0.184919
-0.220637 0.074004 -0.173457
0.129567 0.119077 0.099621
0.123205 0.134278 0.110296
0.108149 0.127983 0.097605
-0.220337 0.118051 -0.150131
-0.191810 0.145536 -0.139618
0.291310 -0.060414 0.190776
0.299273 -0.083221 0.204228
0.299200 -0.068170 0.194431
-0.095445 0.057354 0.056764
-0.161000 0.037249 0.046893
-0.238720 0.024272 0.013506
-0.228968 0.029204 0.026080
-0.138726 0.114603 0.104818
-0.120517 0.042626 0.041531
-0.142920 0.039346 0.043940
-0.135285 0.043247 0.033811
0.061829 0.106108 0.047614
0.059281 0.118855 0.062931
-0.048609 0.102096 -0.207668
-0.076979 0.096450 -0.212432
-0.054012 0.096781 -0.214862
-0.193953 0.087201 -0.176984
-0.149202 0.159916 0.132989
0.252558 0.100059 -0.127713
0.236767 0.101830 -0.107684
0.256230 0.087647 -0.101309
-0.107936 0.046417 0.050087
-0.239613 0.105906 -0.132576
-0.245655 0.102059 -0.112584
-0.216244 0.140023 -0.116759
-0.199545 0.079495 0.065025
-0.211810 0.074858 0.053541
-0.191806 0.110571 0.082573
-0.175881 0.139415 0.106575
-0.159127 0.173460 0.127540
-0.156380 0.128261 0.110869
-0.251542 0.051844 -0.162889
0.051546 0.186259 0.140129
0.037900 0.175331 0.124803
0.050522 0.170036 0.120436
0.009783 0.021256 -0.194336
0.020559 0.027972 -0.178240
0.034898 0.021681 -0.204173
0.093275 0.083318 0.021824
0.114672 0.079209 0.019865
0.101984 0.087248 0.032579
-0.138226 0.084449 0.081816
-0.186618 0.092330 -0.166006
-0.204273 0.086352 -0.152792
-0.209070 0.082336 -0.166523
-0.159609 0.097186 0.089006
-0.155388 0.067518 0.070619
-0.134639 0.060572 0.065868
-0.173806 0.044630 0.056411
-0.175134 0.109670 0.092295
-0.145165 0.157033 -0.134576
-0.161029 0.155364 -0.136692
0.124019 0.174214 0.134328
0.138259 0.168566 0.131860
-0.253716 0.045850 -0.163188
-0.256809 0.049168 -0.159802
-0.041479 0.164294 -0.089715
-0.062359 0.155552 -0.109025
-0.056187 0.168123 -0.093833
0.060690 0.246752 0.223087
0.046926 0.242208 0.219558
0.056003 0.238638 0.212893
-0.174632 0.079483 0.075386
0.044478 0.209739 0.171647
0.058879 0.227586 0.195449
0.043618 0.114103 0.052758
0.045303 0.101264 0.038217
0.048117 0.114119 -0.202224
0.003230 0.106296 -0.208225
0.023145 0.104404 -0.214892
-0.186973 0.087221 0.075335
-0.149732 0.043588 0.055786
-0.127309 0.044360 0.053394
-0.113319 0.056814 0.061086
-0.197398 0.088813 -0.077841
-0.179576 0.085771 -0.062493
-0.209490 0.081240 -0.061225
-0.021410 0.114170 -0.117851
-0.042211 0.114296 -0.132809
-0.016700 0.115820 -0.133539
-0.165854 0.096724 -0.176226
-0.208329 0.035123 0.039090
-0.217310 0.041791 0.039860
0.348765 0.021991 0.059558
0.334181 0.027554 0.046925
0.054723 0.247110 0.223494
0.035934 0.153727 -0.073519
0.048700 0.155977 -0.077720
0.038050 0.143945 -0.083385
0.280420 -0.034896 0.170166
0.292518 -0.043604 0.177941
-0.192893 0.038616 0.047621
-0.204374 0.052590 0.051860
0.102397 0.078406 0.013671
0.115852 0.076565 0.008303
-0.190304 0.061001 0.061343
0.126078 0.254555 0.166301
0.117581 0.258734 0.186284
0.127831 0.258207 0.181435
-0.147871 0.087221 -0.161103
-0.123992 0.105211 -0.152622
0.000404 0.117517 -0.143810
-0.061485 0.162017 0.139989
-0.253697 0.056442 -0.158307
0.017773 0.097936 0.033806
0.019208 0.086663 0.023120
0.038548 0.091924 0.027110
-0.024738 0.198929 0.164762
-0.005031 0.200224 0.161021
-0.008598 0.214212 0.181586
-0.190599 0.162530 -0.099889
-0.163765 0.176022 -0.082772
-0.183004 0.162528 -0.111072
-0.151362 0.070019 -0.163873
0.374169 0.002402 0.078546
0.233493 0.030058 0.086736
0.246113 0.015201 0.099577
0.239945 0.021763 0.105709
0.024914 0.126216 0.063085
0.041496 0.127421 0.067746
0.034136 0.142822 0.084006
0.075490 0.086820 0.024020
0.083568 0.089849 0.030500
-0.004654 0.079281 -0.243895
-0.030520 0.079838 -0.237504
-0.042696 0.067332 -0.247810
-0.193749 0.091980 -0.133720
-0.259342 0.057203 -0.149875
-0.243900 0.082189 -0.154392
0.070627 0.145156 0.098554
0.182698 0.128838 -0.115734
0.158406 0.131135 -0.133251
0.187987 0.131321 -0.133059
-0.212747 0.135486 -0.135562
-0.148950 0.177392 -0.086980
0.023949 0.221033 0.190206
0.041919 0.225153 0.195031
0.037724 0.234048 0.209081
0.030915 0.111308 0.047430
0.071412 0.247835 0.221098
0.072800 0.240250 0.209481
-0.019790 0.095335 -0.061748
-0.023938 0.089314 -0.052263
-0.040338 0.093540 -0.062383
-0.128191 0.105771 -0.120004
-0.115243 0.102886 -0.097359
0.073210 0.125977 -0.151676
0.097871 0.127634 -0.138465
0.069988 0.124753 -0.139983
0.086813 0.032592 -0.188350
0.097524 0.025643 -0.211246
-0.096538 0.095432 -0.073197
-0.126745 0.096851 -0.081437
-0.049985 0.054907 0.010309
-0.041601 0.057062 0.021768
0.013206 0.111300 0.046795
-0.020797 0.014628 -0.269578
-0.011125 0.010316 -0.264750
0.002141 0.021866 -0.279353
0.099532 0.076299 0.004602
0.086429 0.079682 0.013648
0.078003 0.077178 0.006755
-0.236489 0.103806 -0.144980
-0.027218 0.112378 -0.108450
-0.014658 0.109625 -0.093234
-0.045994 0.110763 -0.106414
0.067413 0.095092 0.034362
0.056171 0.091793 0.028203
0.149940 0.128941 -0.120332
0.178573 0.124994 -0.097113
0.138099 0.125721 -0.106942
0.060788 0.082564 0.015856
0.022117 0.142880 -0.081294
0.093109 0.078577 -0.007478
0.081438 0.076028 -0.001468
0.068412 0.077460 -0.011608
-0.114130 0.046047 0.029422
-0.132076 0.048775 0.019876
-0.107443 0.050136 0.014719
-0.132769 0.119400 -0.152984
-0.104804 0.124803 -0.142868
0.022151 0.179076 0.128045
0.040256 0.192264 0.147110
0.029519 0.197284 0.153910
-0.081380 0.102658 -0.087819
-0.045335 0.101046 -0.077275
-0.065899 0.095417 -0.069665
-0.158294 0.101425 -0.125901
-0.016738 0.048310 -0.136538
0.005708 0.052283 -0.129836
-0.253590 0.051986 -0.152616
-0.266490 0.041735 -0.134703
-0.262081 0.047076 -0.148879
0.004755 0.115010 -0.112267
-0.002079 0.112508 -0.100846
-0.253005 0.077416 -0.142001
-0.093004 0.112954 -0.140866
-0.177409 0.173326 -0.076155
0.221035 0.130017 -0.245034
0.199501 0.147047 -0.232218
0.209568 0.141097 -0.217353
0.019978 0.230155 0.203664
0.007979 0.217932 0.185983
0.016623 0.193414 0.148316
0.027774 0.208762 0.171069
0.024991 0.159621 0.102750
0.009961 0.161848 0.104897
0.014407 0.143750 0.082368
0.233316 0.031270 0.110973
0.244473 0.017702 0.117225
0.279227 -0.055206 0.179652
0.282568 -0.063411 0.184841
0.334851 0.093813 -0.063503
0.306288 0.104581 -0.070577
0.309770 0.108920 -0.093989
0.007388 0.130467 -0.092519
-0.005088 0.119106 -0.102803
-0.010391 0.131545 -0.098068
0.038845 0.111045 -0.098171
0.035435 0.122221 -0.095197
0.053076 0.199656 0.157233
-0.152210 0.099766 -0.099762
-0.207296 0.153023 -0.096096
-0.250049 0.045300 -0.162404
0.148127 0.087498 0.069012
0.139025 0.084335 0.053466
0.033940 0.241625 0.217040
0.016314 0.235580 0.209323
0.031037 0.237592 0.213884
0.011507 0.204986 0.166079
-0.070161 0.220328 0.175397
-0.072750 0.215915 0.181518
0.028937 0.101645 0.037163
0.280546 0.111749 -0.075937
0.287171 0.113681 -0.089435
0.147041 0.166326 -0.215765
0.131603 0.174157 -0.179039
0.146189 0.173823 -0.195952
-0.051201 0.086476 -0.052276
-0.077276 0.088417 -0.058646
-0.138217 0.103164 -0.110746
-0.182646 0.095411 -0.110531
-0.211633 0.085856 -0.115862
0.283509 0.022238 0.021255
0.316707 0.013684 0.036887
0.292082 0.017568 0.025003
0.207334 0.069607 -0.039351
0.207028 0.073322 -0.035663
0.216394 0.055918 -0.027690
0.043048 0.133806 -0.092300
-0.117049 0.208634 0.146267
0.226191 0.042619 -0.016416
0.217031 0.054129 -0.029641
-0.190882 0.074113 -0.199654
-0.185938 0.081634 -0.194940
-0.254666 0.064205 -0.018516
-0.256292 0.041238 -0.013804
-0.102723 0.045090 0.038784
-0.125415 0.049951 -0.231728
-0.146102 0.053990 -0.223093
-0.158280 0.036521 -0.215964
0.076416 0.182942 0.138115
0.242035 0.038636 -0.014244
0.225959 0.051193 -0.028861
0.230725 0.040342 -0.015352
-0.023157 0.041221 -0.276314
0.015492 0.056202 -0.274926
-0.018673 0.052372 -0.269897
0.070375 0.251437 0.225473
0.064461 0.249736 0.222013
0.173762 0.143680 -0.276945
0.192612 0.132122 -0.303222
0.188006 0.130171 -0.302355
0.128665 0.078404 -0.253303
0.097637 0.065492 -0.269854
0.124265 0.065248 -0.265113
0.191626 0.143931 -0.273070
0.190282 0.149658 -0.252989
0.208488 0.132899 -0.278424
-0.161656 0.160959 -0.127622
-0.162547 0.167417 -0.112495
-0.221593 0.039821 -0.187167
-0.225676 0.033393 -0.178230
-0.208165 0.147668 0.059545
0.240661 0.032346 -0.003354
0.260521 0.025005 0.008996
0.249848 0.029891 -0.000575
0.219717 0.063901 -0.026262
0.143868 0.181350 -0.015232
0.146065 0.181397 -0.041848
0.135858 0.188514 -0.019254
0.224941 0.062622 -0.042244
0.213226 0.066434 -0.041563
0.295952 0.032204 0.022842
0.324816 0.023173 0.039332
0.322308 0.019263 0.038497
0.062006 0.179692 0.133397
0.203271 0.082169 -0.048691
0.063508 0.128914 -0.106106
0.049326 0.125374 -0.098211
0.057159 0.137606 -0.098641
-0.002372 0.227082 0.197812
-0.194575 0.062594 -0.169064
-0.213675 0.048417 -0.167451
0.001098 0.186505 0.139698
0.007519 0.175751 0.123407
0.241019 0.065048 0.126184
0.235384 0.060108 0.129003
0.250876 0.044023 0.132495
-0.001345 0.144143 0.083808
0.005026 0.128756 0.065322
0.311570 0.035174 0.032098
0.351086 0.014998 0.054211
-0.178624 0.089436 -0.186725
0.204607 0.125270 -0.099514
0.211351 0.120787 -0.082040
0.210157 0.091539 0.125556
0.224191 0.080228 0.125724
0.212987 0.099067 0.123237
-0.270355 0.040466 -0.118817
-0.265039 0.051783 -0.136414
-0.261527 0.065885 -0.121692
-0.130025 0.188075 0.153778
-0.082574 0.012735 -0.251401
-0.071763 0.005079 -0.245173
-0.065187 0.015662 -0.260178
-0.025883 0.082472 -0.041312
-0.033179 0.110058 -0.191934
-0.023917 0.108324 -0.199157
0.004948 0.115186 -0.186349
-0.102161 0.018240 -0.168455
-0.083157 0.013253 -0.175814
-0.099636 0.006386 -0.183350
-0.077056 0.165242 -0.107123
-0.071134 0.173235 -0.094595
-0.131648 0.019684 -0.171164
-0.123773 0.007319 -0.180074
-0.016285 0.025004 -0.278516
0.022897 0.035399 -0.286410
0.007459 0.042696 -0.282926
-0.152192 0.094013 -0.194156
0.137960 0.079522 0.039622
0.126623 0.086110 0.046795
0.118929 0.085528 0.039234
-0.027360 0.031254 -0.277634
0.349743 -0.000910 0.106763
0.358313 0.000700 0.097810
0.332434 0.023655 0.090849
0.212353 0.079136 -0.053997
0.021426 0.119256 -0.173065
0.043210 0.121726 -0.173951
-0.122690 0.074887 0.074913
0.348281 0.080734 -0.036085
0.366559 0.068613 -0.021695
0.356835 0.066191 -0.005806
-0.136608 0.035599 -0.228065
-0.155668 0.026687 -0.213007
-0.142377 0.018940 -0.218797
-0.002466 0.233571 0.201201
-0.058024 0.103301 -0.204067
-0.264168 0.047075 -0.048965
-0.268578 0.040960 -0.066750
-0.270392 0.031673 -0.057628
-0.007391 0.164224 0.110572
0.375992 -0.016534 0.103871
0.367816 -0.019215 0.112198
0.384382 -0.033656 0.114382
0.104804 0.058309 -0.175763
0.100802 0.050794 -0.183469
0.089490 0.051098 -0.161712
-0.024903 0.118854 -0.110808
-0.042968 0.180403 -0.070804
-0.120749 0.088653 -0.063678
0.174046 0.020271 -0.260715
0.182842 0.041560 -0.257964
0.154527 0.035577 -0.269693
0.095057 0.054956 -0.278106
0.125123 0.053915 -0.272313
0.011599 0.204441 -0.005978
-0.001234 0.195082 -0.029053
-0.009811 0.199124 -0.019157
-0.151589 0.092583 -0.074820
-0.224862 0.080118 -0.099172
-0.237220 0.070853 -0.113484
0.126806 0.254982 0.190487
0.136324 0.250971 0.174831
-0.232004 0.042360 -0.182308
-0.246337 0.041733 -0.171008
-0.146683 0.064737 -0.220944
-0.131643 0.077039 -0.219932
-0.247702 0.060150 -0.126815
-0.222634 0.078428 -0.135665
0.263381 0.074618 0.097860
0.254378 0.090980 0.085496
0.247590 0.090403 0.098399
-0.092741 0.077006 -0.227941
-0.090366 0.086721 -0.220936
-0.116726 0.075097 -0.224344
-0.261343 0.068375 -0.100728
-0.198822 0.163047 -0.074392
-0.171379 0.179097 -0.052624
0.050699 0.123320 -0.151803
-0.113061 0.088187 -0.215756
-0.148170 0.079248 -0.214083
-0.240287 0.061069 -0.166267
-0.015567 0.180776 0.136500
-0.017463 0.142751 0.088112
-0.008135 0.130527 0.070133
-0.005288 0.117192 0.055732
0.073050 0.141452 -0.111835
0.067573 0.150456 -0.100465
0.214355 0.048305 0.094952
0.201298 0.059301 0.089178
0.209977 0.050893 0.078291
-0.105263 0.047531 -0.153514
-0.107411 0.065113 -0.150719
-0.152192 0.098774 -0.160978
-0.172476 0.072046 -0.167693
0.244374 0.104730 0.037159
0.261550 0.090119 0.045930
0.260779 0.087457 0.032383
-0.044955 0.111020 -0.183742
-0.007420 0.115510 -0.177761
-0.072701 0.080128 -0.045098
-0.203391 0.089189 -0.095684
0.226588 0.036267 0.098215
0.300519 0.110631 -0.169000
0.273750 0.111230 -0.187853
0.308683 0.099997 -0.178909
-0.264529 0.040999 -0.112276
-0.257461 0.049645 -0.136122
0.233364 0.105604 0.099529
0.219644 0.126148 0.094251
0.220446 0.114134 0.107695
-0.065721 0.094684 -0.133189
-0.069776 0.109644 -0.132369
-0.124659 0.103258 -0.183315
-0.150799 0.098309 -0.183731
0.076210 0.229179 0.192379
0.238766 0.091496 0.108644
0.229133 0.095806 0.114597
0.245181 0.073375 0.118461
-0.086196 0.080817 -0.141966
-0.090782 0.096702 -0.142069
-0.115218 0.209984 0.118440
-0.123230 0.205784 0.093090
-0.146123 0.201166 0.093640
0.220926 0.045261 0.107752
0.204952 0.061494 0.104452
0.141443 0.090331 -0.240488
0.122719 0.096003 -0.236774
0.114284 0.084892 -0.248894
0.240906 0.034275 -0.004048
0.234157 0.044466 -0.013357
0.261108 0.039199 0.002373
0.258640 0.031497 0.005267
0.015162 0.013781 -0.270691
0.036810 0.029216 -0.286008
0.051745 0.154381 0.102430
-0.082856 0.157519 -0.117136
-0.085885 0.143727 -0.128101
-0.108046 0.146448 -0.134875
-0.024082 0.160524 0.113953