# vtk DataFile Version 3.0
3D Unstructured Surface
ASCII
DATASET UNSTRUCTURED_GRID
POINTS 810 float
13.765476 32.306529 -29.024233
13.655425 32.279332 -29.195264
13.650030 32.115509 -29.007658
14.442131 30.359563 -25.705913
14.441490 30.557636 -25.889552
14.308875 30.325408 -25.906157
14.649382 33.882658 -29.348329
14.462239 33.751392 -29.516784
14.532896 33.691335 -29.319525
16.335576 31.397812 -23.484464
16.272427 31.234233 -23.421464
16.408618 31.353872 -23.310604
18.145808 34.773652 -23.956335
18.049647 34.584448 -23.926850
18.209354 34.715589 -23.779482
15.573222 31.059143 -24.440704
15.642945 30.937211 -24.198134
15.701880 31.129927 -24.293301
13.957473 32.824685 -29.296906
13.880502 32.618768 -29.189515
13.993420 32.686063 -29.064782
14.850468 30.720380 -25.341105
14.767636 30.537607 -25.309315
14.864815 30.544215 -25.148253
13.538042 32.097642 -29.195260
13.421884 32.064032 -29.373619
13.424664 31.904341 -29.176143
13.617170 29.935496 -26.776661
13.620801 30.111567 -26.925459
13.509020 29.913865 -26.950756
16.091311 34.524266 -27.503883
16.023628 34.372200 -27.447642
16.157385 34.466359 -27.314102
16.917970 32.141428 -23.258817
17.031615 32.142528 -23.056974
17.032435 32.292261 -23.221255
14.736331 30.340594 -25.178389
14.651559 30.425980 -25.404850
14.165111 33.126307 -29.287336
14.071915 33.200877 -29.546027
14.037270 33.018923 -29.386055
15.484023 34.661598 -28.790014
15.614537 34.706514 -28.601552
15.573641 34.814323 -28.806275
13.423165 31.745637 -28.989186
13.535027 31.927134 -28.995605
17.663742 32.887575 -22.728899
17.781967 33.084821 -22.733114
17.670275 33.024152 -22.868665
18.102680 33.682953 -22.822862
18.052577 33.791187 -23.037941
17.968085 33.607408 -22.983583
14.209706 33.043384 -29.105892
14.083363 32.963949 -29.237050
17.339903 34.349678 -24.978660
17.262240 34.156439 -24.907454
17.435714 34.357642 -24.808855
13.305891 31.879048 -29.371686
13.209707 31.858732 -29.532133
13.210027 31.735632 -29.384363
15.683204 34.897886 -28.701212
15.617680 34.967567 -28.906416
17.976896 33.887740 -23.287277
17.911454 33.715155 -23.210947
13.883462 32.503165 -29.044850
13.765610 32.444517 -29.190647
13.141313 31.588981 -29.343782
13.179391 31.485074 -29.147999
13.287171 31.708645 -29.204078
13.092904 31.298331 -29.100235
13.019860 31.348244 -29.300453
16.799023 31.987099 -23.303398
16.765447 31.817671 -23.179944
16.895445 31.977884 -23.121797
17.389488 32.648705 -22.963770
17.239827 32.586963 -23.167603
17.264281 32.463686 -22.987547
14.309090 30.508657 -26.073038
14.182176 30.295424 -26.099583
17.733036 34.363869 -24.266258
17.576517 34.129432 -24.296676
17.713420 34.196114 -24.118135
18.448758 34.938159 -23.591226
18.440440 35.074994 -23.753168
18.304408 34.905963 -23.813699
18.376715 34.736048 -23.500831
18.327094 34.579337 -23.419260
18.427617 34.648729 -23.314055
15.471537 34.784364 -28.960409
17.745978 33.229083 -22.960533
17.888171 33.268388 -22.745202
17.868982 33.432068 -22.965537
13.536032 32.387491 -29.547853
13.650169 32.424887 -29.380338
13.660391 32.582475 -29.550403
18.341872 34.470933 -23.273014
14.599460 33.928842 -29.492870
15.758218 34.842539 -28.495822
15.764543 35.082867 -28.767700
13.850769 30.170985 -26.569876
13.877433 30.354652 -26.685902
13.737986 30.137798 -26.740164
16.550708 31.481180 -23.197497
16.482131 31.524960 -23.364868
17.621165 33.077241 -23.017947
17.161900 32.169426 -22.852164
17.160419 32.307995 -23.005231
14.614524 30.292800 -25.345128
13.113214 31.695413 -29.524515
12.904151 30.588090 -28.699267
12.823212 30.401976 -28.669820
12.906998 30.416690 -28.525769
15.496448 34.949343 -29.111191
15.363170 34.638458 -28.985710
15.750784 35.296635 -29.045051
15.623010 35.199936 -29.171982
15.699295 35.152309 -28.971956
15.834444 35.023838 -28.567455
12.930512 30.148020 -28.218754
12.974727 30.111281 -28.102327
13.034241 30.229283 -28.101547
17.687444 34.721921 -24.738045
17.824350 34.933493 -24.712190
17.676366 34.854989 -24.902594
17.035102 34.268978 -25.457384
17.164062 34.406487 -25.371384
17.076878 34.401734 -25.529910
17.840932 34.777173 -24.514101
17.689233 34.580975 -24.582492
17.566617 34.543013 -24.768564
16.947072 34.311841 -25.670884
17.012334 37.602669 -29.343346
17.041878 37.765769 -29.480891
16.906611 37.578295 -29.515269
16.940458 34.486236 -25.883412
17.016420 34.684163 -25.965853
16.861029 34.571863 -26.131726
19.738059 37.317056 -23.972844
19.612282 37.191487 -24.053316
19.677818 37.128786 -23.867997
18.584418 35.220942 -23.656183
18.479440 35.235128 -23.855521
19.353853 36.583310 -23.821545
19.172168 36.399837 -23.927810
19.235929 36.349586 -23.763580
18.992749 36.461490 -24.298139
19.090469 36.428615 -24.097550
19.181623 36.656812 -24.194950
18.489889 35.642174 -24.271134
18.557079 35.571398 -24.078335
18.619285 35.783333 -24.197616
17.638458 38.214979 -28.887369
17.551713 38.254432 -29.096871
17.491727 38.069910 -28.992124
16.038004 36.071782 -29.406008
15.921264 35.859575 -29.381424
16.049296 35.980067 -29.277419
16.156590 36.146077 -29.266013
16.297802 36.383436 -29.272995
16.160799 36.302051 -29.440046
19.058966 38.988026 -27.141963
19.092495 39.128504 -27.244722
18.940939 38.950092 -27.314683
18.987068 39.161283 -27.476895
19.165887 39.336039 -27.350560
19.068510 39.363329 -27.561451
19.235928 39.248575 -27.120941
17.122484 34.256481 -25.280042
17.230896 34.391134 -25.228814
18.866422 35.843489 -23.838153
18.725014 35.642306 -23.863796
18.842486 35.641766 -23.660645
13.542180 32.253583 -29.375322
13.419514 32.201698 -29.543474
13.788951 32.610366 -29.347084
13.797393 32.794045 -29.551261
13.938296 30.156342 -26.402626
13.961165 30.036974 -26.256491
14.058066 30.242478 -26.268936
18.205415 34.429701 -23.475328
18.227504 34.280967 -23.270423
19.311833 38.132406 -25.651157
19.348609 38.271491 -25.752493
19.200540 38.127472 -25.844765
16.277426 36.077051 -28.955358
16.251824 36.185576 -29.130209
16.138686 36.000541 -29.130662
15.238759 34.623637 -29.196768
15.365616 34.780545 -29.152323
18.153789 33.986366 -23.074181
14.254690 33.308079 -29.347996
16.511956 36.953455 -29.531421
16.507080 36.800421 -29.360737
16.654877 36.989641 -29.300455
16.873465 34.092375 -25.555153
16.794450 34.893627 -26.627680
16.706505 34.937523 -26.844048
16.654782 34.770485 -26.749342
16.129143 35.853888 -28.978493
16.247708 35.897642 -28.804346
15.740908 35.397029 -29.181805
15.604940 35.320478 -29.349050
16.496793 36.216546 -28.699732
16.447448 36.056735 -28.609113
16.567804 36.181202 -28.523887
13.390870 30.026451 -27.262597
13.400554 29.892981 -27.126646
13.501146 30.083452 -27.114751
19.829433 38.147929 -24.750173
19.915738 38.098455 -24.538608
19.938782 38.278026 -24.701830
14.013528 30.401710 -26.489661
18.699839 35.256671 -23.492518
18.735132 35.421724 -23.608916
17.278539 37.939711 -29.239414
17.409568 38.102434 -29.184921
17.317902 38.112780 -29.369528
16.589577 34.577909 -26.647752
16.552187 34.377828 -26.482839
16.711832 34.567515 -26.407403
18.809861 38.964320 -27.573697
18.852273 39.119083 -27.676459
18.692302 38.981831 -27.812235
18.294908 34.106441 -22.951253
18.387016 34.329692 -23.033784
18.235563 34.159006 -23.119069
19.431882 37.570639 -24.787826
19.552681 37.648649 -24.668016
19.530205 37.760746 -24.833994
17.581801 38.038902 -28.785750
17.711420 38.180410 -28.709155
15.860220 35.300139 -28.842871
16.232998 34.897099 -27.679627
16.091644 34.751029 -27.770279
16.192802 34.719493 -27.546905
19.301159 36.821943 -24.175702
19.362972 36.972256 -24.237500
19.220459 36.840507 -24.332239
18.026981 34.928921 -24.336499
18.102494 34.869433 -24.136746
18.177324 35.059819 -24.204856
14.867810 34.272128 -29.439130
14.820966 34.095320 -29.305677
14.956797 34.267723 -29.274531
16.291326 35.279728 -28.012003
16.183472 35.240346 -28.167818
16.162505 35.105754 -28.051583
19.369638 36.434674 -23.628689
19.528483 37.231915 -24.243545
19.667419 37.375445 -24.162815
19.582437 37.420027 -24.360419
16.423182 34.937881 -27.374199
16.333606 34.739914 -27.311010
16.493949 34.871004 -27.165686
18.518775 34.859451 -23.381405
18.561306 34.755939 -23.191712
16.110427 35.405046 -28.494490
16.256473 35.537777 -28.373240
16.139833 35.575114 -28.635673
16.413046 36.621624 -29.331039
16.390895 36.735856 -29.507543
18.723545 38.495473 -27.175003
18.752207 38.639551 -27.295195
18.601638 38.478749 -27.382992
16.431150 34.230635 -26.532301
16.535172 34.208121 -26.314538
16.681859 34.379358 -26.244227
16.653033 34.234699 -26.128269
16.787128 34.380651 -26.049458
14.735759 34.103371 -29.466546
16.338674 34.509763 -27.032066
16.436360 34.668988 -27.038341
16.293793 34.579172 -27.196241
17.448056 38.265807 -29.304969
16.731243 36.925676 -29.078856
16.560184 36.724019 -29.169503
16.670759 36.727426 -28.961941
18.976779 35.867989 -23.675785
19.089954 35.920341 -23.538235
19.074932 36.036440 -23.692522
19.628426 38.750784 -25.817195
19.490006 38.644893 -25.944591
19.530343 38.557664 -25.767366
17.431059 34.724772 -25.221787
17.351606 34.779599 -25.433515
17.314490 34.560082 -25.259941
17.372418 37.938996 -29.061861
19.808483 37.523257 -24.079744
19.141431 37.424190 -25.119568
19.089303 37.261427 -25.024295
19.217021 37.388631 -24.949381
18.786615 38.798875 -27.421241
15.712932 35.497757 -29.353692
15.854698 35.585632 -29.187285
15.813074 35.669144 -29.364388
16.822994 34.166909 -25.734537
18.405270 35.455867 -24.220807
19.390939 37.688615 -24.991830
19.328590 37.518695 -24.905702
13.023980 30.087485 -27.988131
12.910620 29.980277 -28.099343
17.855417 38.510793 -28.826953
17.984867 38.573657 -28.657231
17.974988 38.697518 -28.821029
17.806637 34.575897 -24.361030
17.891552 34.523376 -24.148759
17.993726 33.466634 -22.776436
18.926688 39.455860 -27.930337
18.796456 39.392031 -28.097827
18.816888 39.286041 -27.936497
18.267600 34.628790 -23.580629
16.636416 37.164272 -29.541395
16.805231 37.248913 -29.318692
16.764790 37.368804 -29.537567
15.986591 35.803416 -29.191030
18.320299 34.782591 -23.652443
17.184053 37.948987 -29.428442
17.143805 37.764048 -29.285661
17.073368 34.522756 -25.673871
[...]
POINT_DATA 810
VECTORS Displacement float
0.188924 -0.035329 0.035533
0.191375 -0.040132 0.042964
0.195770 -0.033309 0.033058
0.087269 0.037537 -0.067987
0.105710 0.041264 -0.082148
0.094725 0.036492 -0.061643
0.112218 -0.037258 0.060329
0.123461 -0.046692 0.062584
0.123304 -0.041135 0.058825
0.020024 0.014688 -0.052936
0.018973 0.013867 -0.047336
0.015582 0.010328 -0.043696
0.005692 0.041148 -0.132465
0.004853 0.041252 -0.126050
0.003146 0.036011 -0.123418
0.053778 0.038757 -0.092496
0.042255 0.033389 -0.081166
0.048620 0.036273 -0.088299
0.170127 -0.047685 0.051706
0.177898 -0.042968 0.045815
0.172880 -0.039463 0.040782
0.085432 0.043620 -0.096195
0.076964 0.040393 -0.085085
0.069685 0.039585 -0.085447
0.197058 -0.038542 0.041160
0.197116 -0.043032 0.046919
0.201636 -0.036541 0.038543
0.103430 0.019104 0.003961
0.122299 0.020433 -0.008341
0.107280 0.016035 0.012256
0.072489 0.051134 -0.009917
0.071072 0.046900 -0.015958
0.070415 0.056141 -0.020198
0.005030 0.006772 -0.064383
0.001985 0.002872 -0.057526
0.002665 0.006039 -0.068145
0.061869 0.035106 -0.071111
0.076441 0.038420 -0.076550
0.154989 -0.047607 0.053636
0.155385 -0.055877 0.061027
0.162230 -0.051123 0.056055
0.072877 0.006402 0.040714
0.073063 0.014586 0.034752
0.070459 0.010477 0.039775
0.204935 -0.030337 0.029286
0.201273 -0.031634 0.030905
-0.004942 -0.001175 -0.069801
-0.005467 -0.000221 -0.073586
-0.004575 0.001248 -0.076335
-0.006980 0.007047 -0.082538
-0.006377 0.011913 -0.088859
-0.006185 0.008592 -0.086217
0.155694 -0.041584 0.045992
0.162437 -0.046149 0.050550
0.025197 0.073822 -0.125840
0.023460 0.066461 -0.115146
0.021486 0.069058 -0.127745
0.200109 -0.041448 0.044786
0.197193 -0.045032 0.048133
0.200773 -0.040632 0.043563
0.070896 0.016414 0.037112
0.067620 0.011033 0.040516
-0.004896 0.018060 -0.095223
-0.005154 0.014145 -0.091953
0.180938 -0.037565 0.038250
0.185190 -0.041517 0.044347
0.201187 -0.038481 0.041082
0.204309 -0.032874 0.034399
0.203829 -0.035945 0.037878
0.202196 -0.029931 0.032035
0.198340 -0.035044 0.038053
0.007877 0.007801 -0.060702
0.007753 0.005329 -0.050056
0.004755 0.004016 -0.053603
-0.002588 0.001695 -0.071030
-0.000427 0.005137 -0.074997
-0.001381 0.001914 -0.066453
0.112210 0.039543 -0.075062
0.101824 0.034976 -0.054717
0.010164 0.051431 -0.125142
0.010383 0.048468 -0.114124
0.006980 0.044286 -0.115465
0.000942 0.027941 -0.115674
0.002360 0.030106 -0.125732
0.003692 0.034937 -0.128001
-0.000015 0.027652 -0.110269
-0.001294 0.026163 -0.105740
-0.001917 0.023171 -0.100945
0.069663 0.004336 0.043709
-0.004778 0.004017 -0.081667
-0.005971 0.001312 -0.076598
-0.005582 0.006132 -0.084163
0.187868 -0.050791 0.055153
0.187031 -0.046787 0.051138
0.181809 -0.053075 0.057303
-0.002972 0.022467 -0.099186
0.111940 -0.040942 0.062670
0.073282 0.022461 0.032222
0.069357 0.017933 0.038500
0.113731 0.027515 -0.028124
0.130767 0.029748 -0.043398
0.117814 0.024202 -0.018336
0.011892 0.006820 -0.041003
0.015569 0.010740 -0.049532
-0.003865 0.003859 -0.080853
-0.000800 -0.000426 -0.051936
-0.000119 0.002105 -0.061869
0.067076 0.034900 -0.066172
0.197186 -0.043413 0.045915
0.176349 -0.012090 0.024167
0.162088 -0.009376 0.027120
0.165902 -0.007490 0.023669
0.065052 0.003957 0.043891
0.072930 -0.001058 0.046610
0.062516 0.011765 0.039951
0.060290 0.007064 0.040782
0.065005 0.012391 0.040156
0.072756 0.023862 0.035455
0.145488 -0.001820 0.027154
0.142573 -0.000281 0.027027
0.153159 -0.000383 0.021147
0.019756 0.068779 -0.149955
0.018350 0.064007 -0.160310
0.022634 0.072111 -0.156806
0.035798 0.081022 -0.110516
0.034038 0.084313 -0.120816
0.037622 0.086566 -0.114990
0.015168 0.060327 -0.150399
0.016767 0.063925 -0.140908
0.020683 0.070187 -0.139436
0.040628 0.084559 -0.104916
0.021166 -0.045869 0.036046
0.015022 -0.046969 0.031291
0.019889 -0.041395 0.031469
0.045742 0.091164 -0.102288
0.047780 0.094237 -0.104747
0.051471 0.092137 -0.090174
-0.030959 -0.012756 -0.069856
-0.032782 -0.013487 -0.082384
-0.029318 -0.009986 -0.071703
0.000182 0.024358 -0.119217
0.002560 0.029172 -0.132579
-0.022853 -0.002910 -0.092855
-0.018968 -0.000437 -0.110190
-0.018129 0.001014 -0.098320
-0.018449 -0.004090 -0.139061
-0.018969 -0.001915 -0.123750
-0.024823 -0.007812 -0.121950
0.002811 0.024726 -0.157766
0.001321 0.023902 -0.146365
-0.001085 0.018067 -0.151684
-0.002058 -0.074479 0.034069
-0.001913 -0.067532 0.029271
0.004573 -0.068810 0.037624
0.046796 -0.002582 0.035408
0.049236 0.001525 0.035824
0.051804 0.000833 0.038219
0.050610 -0.002977 0.038813
0.047498 -0.009536 0.038695
0.043401 -0.008151 0.034646
-0.034466 -0.063426 -0.025437
-0.030795 -0.055004 -0.023778
-0.034339 -0.069292 -0.021917
-0.029268 -0.056083 -0.021205
-0.025687 -0.043739 -0.022140
-0.024810 -0.044829 -0.021049
-0.027928 -0.044975 -0.024259
0.031816 0.077919 -0.114758
0.030804 0.081066 -0.123886
-0.006822 0.011911 -0.123647
-0.002714 0.017794 -0.130104
-0.004986 0.014534 -0.114555
0.192420 -0.044883 0.049122
0.192486 -0.048598 0.052774
0.179949 -0.047666 0.051784
0.174007 -0.055145 0.059061
0.105904 0.029158 -0.032074
0.091435 0.027426 -0.024009
0.106034 0.032522 -0.045064
-0.001515 0.027599 -0.106772
-0.004004 0.021733 -0.098377
-0.052633 -0.067906 -0.095143
-0.051209 -0.066191 -0.083807
-0.053240 -0.076972 -0.093735
0.060874 0.001549 0.046058
0.054376 -0.003076 0.042209
0.056414 0.002059 0.041762
0.073241 -0.008437 0.052068
0.068484 -0.002045 0.047923
-0.006189 0.014934 -0.090919
0.146310 -0.048479 0.056896
0.032244 -0.024655 0.032121
0.038920 -0.021421 0.036337
0.037023 -0.027441 0.037755
0.037835 0.074025 -0.099647
0.062850 0.086173 -0.058520
0.067395 0.080977 -0.041552
0.065118 0.084015 -0.049058
0.062457 0.007712 0.044393
0.067092 0.008858 0.048046
0.058292 0.008571 0.039205
0.054760 0.003622 0.039550
0.064807 -0.001846 0.050132
0.069252 0.005165 0.050813
0.068296 0.000498 0.050687
0.125230 0.012649 0.012797
0.110546 0.012919 0.019946
0.125954 0.016348 0.001951
-0.036233 -0.026529 -0.067527
-0.032038 -0.021155 -0.060192
-0.031282 -0.021526 -0.057670
0.125472 0.033590 -0.054739
-0.001939 0.019629 -0.107682
-0.002432 0.018676 -0.114184
0.010261 -0.057911 0.035314
0.004132 -0.062834 0.032721
0.004098 -0.057080 0.028228
0.062123 0.082991 -0.056048
0.057813 0.079272 -0.065261
0.057368 0.088185 -0.071797
-0.032161 -0.071120 -0.017003
-0.029073 -0.060883 -0.018341
-0.029902 -0.071031 -0.013165
-0.006308 0.013759 -0.087447
-0.005016 0.016708 -0.089916
-0.005463 0.017494 -0.092931
-0.045682 -0.038039 -0.113474
-0.043581 -0.032849 -0.099584
-0.045905 -0.038746 -0.101506
0.004399 -0.075302 0.041550
-0.002520 -0.080310 0.037055
0.067680 0.017661 0.040271
0.077702 0.054901 0.008027
0.076056 0.048271 0.007479
0.074898 0.056207 -0.002895
-0.029059 -0.010843 -0.112198
-0.032572 -0.014556 -0.109700
-0.029659 -0.013807 -0.124761
0.011519 0.051479 -0.152001
0.008406 0.045867 -0.142654
0.008776 0.043981 -0.150344
0.090790 -0.028028 0.061330
0.098934 -0.029420 0.059777
0.089203 -0.022823 0.058531
0.081274 0.042972 0.031403
0.080028 0.038754 0.034118
0.079695 0.043046 0.027383
-0.019438 0.000126 -0.083811
-0.036083 -0.018015 -0.095355
-0.034719 -0.016845 -0.080485
-0.038537 -0.022327 -0.092981
0.075918 0.065919 -0.005901
0.073294 0.065686 -0.013990
0.072751 0.072496 -0.019714
-0.001075 0.023249 -0.103695
-0.002606 0.019461 -0.094088
0.076173 0.027254 0.042290
0.078427 0.027623 0.044740
0.073267 0.020686 0.045673
0.042454 -0.016424 0.037139
0.036005 -0.019256 0.032843
-0.039845 -0.099073 -0.022197
-0.038207 -0.091951 -0.018605
-0.036038 -0.101449 -0.011908
0.058050 0.070565 -0.062299
0.053928 0.074279 -0.072662
0.053141 0.084142 -0.078673
0.050267 0.078801 -0.081831
0.049072 0.086649 -0.089442
0.100841 -0.034571 0.062346
0.067626 0.068437 -0.033734
0.069240 0.073612 -0.030859
0.070307 0.065128 -0.023659
-0.001256 -0.060707 0.024869
0.043057 -0.027576 0.043056
0.045016 -0.020019 0.041003
0.049641 -0.021326 0.045441
-0.008779 0.009711 -0.109915
-0.010554 0.007559 -0.097465
-0.011932 0.006460 -0.105378
-0.036826 -0.038584 -0.051805
-0.042306 -0.050893 -0.056909
-0.043343 -0.049264 -0.063034
0.030241 0.083628 -0.144013
0.034894 0.087801 -0.139085
0.031510 0.084718 -0.133359
0.010182 -0.063596 0.039561
-0.031483 -0.015157 -0.066156
-0.044931 -0.049590 -0.139832
-0.040403 -0.042227 -0.146005
-0.044321 -0.042731 -0.135519
-0.035615 -0.082075 -0.017159
0.052668 0.004543 0.037492
0.057102 0.008168 0.038885
0.051026 0.003856 0.036388
0.041806 0.078091 -0.096563
0.005130 0.031133 -0.155493
-0.048539 -0.046515 -0.116070
-0.046490 -0.042695 -0.124398
0.140420 0.001215 0.026431
0.130180 -0.000077 0.032143
-0.012817 -0.075593 0.020253
-0.016467 -0.079457 0.017131
-0.017388 -0.071618 0.010029
0.012363 0.056103 -0.137470
0.008348 0.048624 -0.130341
-0.006526 0.003766 -0.079664
-0.022488 -0.043260 -0.019263
-0.023156 -0.047031 -0.018073
-0.025188 -0.051941 -0.018203
0.000500 0.030510 -0.113271
0.028484 -0.029972 0.031595
0.031069 -0.035313 0.037192
0.024510 -0.035404 0.031367
0.055909 0.005484 0.039530
0.001701 0.031609 -0.118257
0.009547 -0.052487 0.030342
0.016395 -0.052048 0.036561
0.041032 0.091144 -0.114929
-0.038311 -0.022357 -0.107554
0.002685 0.017547 -0.171474
0.007911 0.027271 -0.174428
0.005704 0.026122 -0.170114
-0.024205 -0.038163 -0.022096
-0.035338 -0.017690 -0.106012
-0.035571 -0.020513 -0.120569
0.057782 0.000904 0.042851
0.195888 -0.028389 0.032740
0.182502 -0.027856 0.034947
0.188731 -0.033683 0.038003
-0.022033 -0.071633 0.001796
-0.022362 -0.062531 -0.005485
-0.020761 -0.064531 -0.001062
0.014871 0.056270 -0.161471
-0.015227 -0.065885 0.009374
-0.018497 -0.065707 0.003809
-0.041184 -0.057851 -0.046031
-0.043176 -0.068549 -0.044146
-0.045299 -0.067235 -0.052650
-0.005505 0.013211 -0.101569
-0.007691 0.010518 -0.100406
0.027458 0.080313 -0.140587
0.023412 0.074738 -0.146514
0.026772 0.078766 -0.151203
0.078487 0.043529 -0.098162
0.063182 0.039303 -0.088141
-0.010324 0.007931 -0.116319
-0.014360 0.003948 -0.111147
0.004145 0.031501 -0.143448
0.004557 0.034626 -0.136650
0.069176 0.078624 -0.034047
-0.047482 -0.043874 -0.099291
-0.043349 -0.035544 -0.086784
-0.044503 -0.039445 -0.085376
-0.028135 -0.020486 -0.050192
-0.035520 -0.029600 -0.060016
-0.029427 -0.021068 -0.053177
0.067636 0.013420 0.045722
0.071496 0.014954 0.048357
0.009044 0.034296 -0.171082
0.005775 0.029231 -0.165188
-0.038478 -0.036049 -0.061372
-0.032405 -0.028831 -0.050388
-0.039116 -0.039530 -0.058878
0.039730 -0.013757 0.033700
0.006280 0.040017 -0.139156
-0.029571 -0.041079 -0.028990
-0.025753 -0.032123 -0.027570
-0.025093 -0.034037 -0.025011
-0.035649 -0.044314 -0.041475
-0.037670 -0.053791 -0.038858
-0.026597 -0.019885 -0.046325
-0.032827 -0.027331 -0.054129
-0.043042 -0.057164 -0.053121
-0.037884 -0.044095 -0.048753
-0.031360 -0.032583 -0.041783
0.091958 0.043305 -0.093014
-0.010084 0.007231 -0.130904
-0.030769 -0.038998 -0.033247
-0.033806 -0.048574 -0.032988
-0.040265 -0.026715 -0.089063
-0.035969 -0.022024 -0.073637
-0.037709 -0.025572 -0.075480
-0.009081 -0.000959 -0.165188
-0.003556 0.002740 -0.171527
-0.002732 0.007701 -0.169198
-0.021390 -0.036996 -0.019834
-0.021704 -0.039593 -0.019746
-0.046043 -0.092165 -0.043493
-0.048635 -0.087968 -0.055408
-0.045748 -0.082365 -0.044808
0.062412 0.011228 0.041916
0.068309 0.017419 0.042753
-0.025311 -0.011086 -0.134778
-0.037438 -0.065208 -0.030557
-0.033825 -0.052823 -0.030240
-0.032330 -0.053886 -0.026782
0.016582 -0.057777 0.041177
0.058901 0.059849 -0.060874
0.061514 0.064796 -0.052417
0.062139 0.056366 -0.052234
0.076404 0.000486 0.043036
-0.003685 0.018515 -0.091816
-0.003778 0.015743 -0.100921
0.095105 -0.023425 0.056246
0.106316 -0.030074 0.056652
0.024934 -0.040446 0.035302
-0.010269 -0.083151 0.028926
-0.007150 -0.077367 0.029585
-0.024296 -0.067211 -0.005743
-0.030200 -0.010541 -0.098334
-0.033308 -0.014116 -0.096123
-0.025371 -0.018993 -0.154096
-0.033263 -0.027158 -0.147087
-0.028211 -0.027135 -0.157503
-0.009095 0.006286 -0.146045
-0.007634 0.004880 -0.158773
-0.003880 0.012104 -0.155721
0.011521 0.007726 -0.049109
0.008159 0.003969 -0.041190
-0.003625 0.015528 -0.139054
-0.049423 -0.056628 -0.084971
-0.052605 -0.064668 -0.103219
-0.050631 -0.055751 -0.097985
-0.022738 -0.004064 -0.110168
-0.039935 -0.027038 -0.119008
-0.042346 -0.029855 -0.107936
0.075347 0.029027 0.036910
0.077931 0.035907 0.032372
0.078729 0.033291 0.038804
-0.016660 0.002343 -0.087973
0.083543 0.031102 -0.040392
0.079653 0.032421 -0.047534
-0.035893 -0.027173 -0.065211
-0.047705 -0.078135 -0.054720
-0.050658 -0.084537 -0.067276
0.061494 0.073734 -0.053750
-0.014080 0.001661 -0.136133
-0.029041 -0.043778 -0.026457
-0.024595 -0.036199 -0.023209
-0.005593 0.011584 -0.145172
0.052912 -0.022557 0.048048
0.047540 -0.028149 0.046768
-0.030347 -0.010231 -0.085060
-0.028039 -0.030833 -0.034334
-0.025492 -0.049495 -0.019916
-0.027406 -0.007086 -0.089135
-0.015165 0.003571 -0.099137
-0.038375 -0.060381 -0.035898
-0.041947 -0.073994 -0.036899
0.075616 0.033502 0.022896
0.074507 0.026152 0.026104
0.074968 0.031384 0.017821
-0.033099 -0.084930 -0.010380
-0.012900 0.000817 -0.147317
-0.036237 -0.020485 -0.078544
-0.031955 -0.017589 -0.064066
-0.026492 -0.007145 -0.104002
0.007708 0.046311 -0.135492
0.041852 -0.033236 0.045120
0.034816 -0.038497 0.042601
0.037436 -0.032602 0.041094
-0.025589 -0.029243 -0.029788
-0.021957 -0.022211 -0.028736
-0.025757 -0.064556 -0.010452
-0.023690 -0.051569 -0.015914
-0.023782 -0.055869 -0.013026
-0.030476 -0.021448 -0.055599
-0.026368 -0.059410 -0.015176
0.072299 0.022750 0.041701
0.022574 -0.050664 0.041028
-0.040324 -0.033885 -0.072888
-0.035580 -0.027989 -0.062765
-0.001867 0.012396 -0.164814
0.010579 0.052047 -0.141407
-0.043820 -0.043165 -0.074023
0.011719 0.048033 -0.161508
-0.048117 -0.047476 -0.094087
-0.050319 -0.052503 -0.107152
-0.015396 0.001980 -0.122792
-0.044332 -0.041363 -0.080154
0.071778 0.022904 0.038593
0.145225 -0.054139 0.061677
0.048946 0.056483 -0.081770
0.043362 0.061947 -0.087759
0.047406 0.064626 -0.083056
-0.047300 -0.056076 -0.072861
0.008935 0.038109 -0.164892
0.007813 0.038934 -0.155409
0.019213 -0.070872 0.049329
0.012249 -0.078044 0.047328
0.011644 -0.074114 0.046813
0.027698 -0.043467 0.040002
0.067110 -0.008608 0.051623
0.061640 -0.003011 0.046821
-0.052318 -0.080650 -0.080678
-0.048790 -0.071659 -0.064111
0.099703 0.022082 -0.005060
0.044198 0.034571 -0.083194
0.049098 0.036745 -0.087223
-0.000444 0.031095 -0.109994
0.002582 0.037472 -0.117332
0.000651 0.033705 -0.111003
-0.028247 -0.074416 -0.007860
0.064987 0.056950 -0.041654
0.064524 0.067356 -0.043347
0.067536 0.061502 -0.032214
0.025659 0.021146 -0.057911
0.034025 0.027311 -0.070743
0.028931 0.024602 -0.064041
0.057253 0.035146 -0.075150
0.001240 0.033874 -0.115674
0.045308 0.082042 -0.093307
0.061452 0.003341 0.043166
0.144026 0.014780 -0.005930
0.140558 0.019716 -0.017437
-0.044156 -0.047331 -0.069252
0.074153 0.047534 -0.000554
0.074540 0.037497 0.007740
0.034856 0.029712 -0.074092
0.037751 0.031408 -0.077387
0.034145 0.064603 -0.097662
0.038798 0.063831 -0.092763
0.065288 0.075017 -0.043329
0.019223 -0.065508 0.048184
0.011048 -0.068350 0.043600
0.016221 -0.062704 0.044380
0.063592 0.007551 0.041708
0.080865 -0.015773 0.055894
0.086534 -0.016198 0.053792
-0.030293 -0.084186 -0.005201
-0.027952 -0.083496 -0.001060
-0.021670 -0.010951 -0.148546
-0.030668 -0.019039 -0.138553
-0.026352 -0.077172 -0.002339
0.062581 -0.010143 0.049747
0.059021 -0.008830 0.048183
-0.004837 0.020036 -0.096798
-0.048644 -0.056291 -0.132049
-0.050318 -0.055288 -0.122403
-0.050997 -0.062301 -0.124556
0.015630 0.040009 -0.175600
0.012539 0.038823 -0.174997
0.011207 0.029250 -0.176295
0.062887 0.012980 0.040400
0.186324 -0.022269 0.030293
0.176944 -0.016921 0.028694
0.186801 -0.016946 0.024785
0.073185 0.041981 -0.003442
0.047518 0.073745 -0.084822
-0.053298 -0.072620 -0.105976
-0.043125 -0.035422 -0.126773
-0.037465 -0.027663 -0.134264
-0.002325 -0.000920 -0.056610
0.077511 0.039420 0.024424
0.075262 0.030322 0.030352
0.165587 -0.056221 0.060193
0.055655 -0.016463 0.047985
0.052274 -0.014666 0.044907
-0.003026 0.025082 -0.102601
-0.001863 0.027974 -0.105240
-0.040857 -0.087613 -0.027168
-0.037744 -0.081611 -0.022065
-0.047339 -0.060812 -0.067404
0.005357 0.042969 -0.122543
0.006950 0.045744 -0.121858
0.024859 0.071666 -0.162219
0.020675 0.065404 -0.165248
0.068374 0.051403 -0.028715
0.077496 0.020750 0.047980
0.074840 0.017715 0.049153
0.071499 0.034322 -0.060478
0.085064 0.039461 -0.077434
0.036744 0.089203 -0.124711
0.057086 -0.019599 0.048960
0.023408 -0.056334 0.045840
0.030654 -0.046531 0.044703
0.032355 -0.051108 0.048700
0.038389 -0.042022 0.047482
0.038917 -0.047265 0.049761
-0.047768 -0.049378 -0.086572
0.012963 0.045972 -0.170186
0.045000 -0.034548 0.047882
0.045107 -0.038549 0.049132
-0.043454 -0.085642 -0.035624
-0.023593 -0.078866 0.004099
0.017146 0.057521 -0.168018
0.016628 0.049879 -0.173732
-0.017086 -0.010601 -0.160486
-0.014081 -0.003122 -0.154640
0.030718 0.024065 -0.069365
0.036649 0.028591 -0.076142
0.029225 0.023148 -0.064327
0.149174 0.006058 0.011791
0.135525 0.006694 0.020279
0.146815 0.010230 0.003825
0.081439 0.038705 0.035717
0.081270 0.047440 0.025537
0.005043 -0.080103 0.044049
0.006574 0.019558 -0.175615
0.060327 0.088961 -0.065910
0.065917 0.003215 0.049525
0.061653 -0.002523 0.048270
-0.016507 -0.094819 0.025074
-0.010424 -0.096498 0.032058
-0.016645 -0.099937 0.024733
0.071189 0.075342 -0.026595
0.051217 -0.029241 0.048758
-0.052530 -0.067578 -0.115921
-0.052004 -0.060490 -0.111791
-0.047951 -0.049748 -0.129261
0.027930 0.079142 -0.130218
0.055650 0.092231 -0.081648
0.051584 0.093760 -0.094939
0.053705 0.091895 -0.090088
0.001876 0.011302 -0.173958
-0.051304 -0.072046 -0.078152
-0.002815 -0.086639 0.039147
-0.010051 -0.091208 0.032631
0.137698 0.003721 0.024397
0.076285 0.060951 -0.001290
0.078596 0.058996 0.007382
0.148271 -0.007465 0.029479
0.154240 -0.006593 0.027544
0.004688 -0.084977 0.043881
0.030107 0.080882 -0.151812
0.033928 0.081277 -0.147362
0.001496 0.019936 -0.163295
0.080712 0.035994 0.038695
0.080195 0.030103 0.042981
0.020210 0.051651 -0.172585
0.073387 0.010806 0.050419
0.070657 0.010085 0.050162
-0.040730 -0.078342 -0.031119
-0.043099 -0.096302 -0.032513
-0.001081 0.021985 -0.106195
-0.002271 0.019134 -0.096168
-0.002691 0.017763 -0.098622
0.026211 0.062883 -0.105248
0.022520 0.056386 -0.103167
0.054859 -0.007239 0.044295
-0.022117 -0.096390 0.016651
-0.021248 -0.088143 0.014442
0.079910 0.054996 0.014359
0.080227 0.051497 0.019117
0.039010 0.087591 -0.134235
0.130602 0.009894 0.016407
-0.031887 -0.102667 -0.002054
-0.031493 -0.094949 -0.002105
-0.027337 -0.102963 0.007405
0.014228 0.052241 -0.166099
0.020592 0.060572 -0.169948
0.024560 0.062827 -0.166897
0.029208 0.072908 -0.158190
-0.038994 -0.034748 -0.142129
0.040264 0.092141 -0.125487
0.066451 0.079581 -0.042207
0.043775 0.093639 -0.114648
0.076153 0.040106 0.016207
-0.021716 -0.019888 -0.161900
-0.015494 -0.012791 -0.165539
-0.002783 -0.091250 0.038905
0.048612 -0.013600 0.041338
-0.034335 -0.034412 -0.152498
0.058446 0.089650 -0.074130
-0.035066 -0.093645 -0.010494
-0.016304 -0.086796 0.022006
0.011243 0.009332 -0.057828
0.075302 0.020580 0.021813
0.075061 0.025947 0.013418
0.027290 -0.058592 0.049540
0.032712 -0.055501 0.050284
-0.037940 -0.074559 -0.026310
0.026381 -0.063093 0.050258
0.049098 0.092464 -0.104858
-0.027247 -0.094939 0.006643
-0.022313 -0.102197 0.016328
-0.001501 0.005102 -0.078412
0.098998 0.042507 -0.088138
-0.042336 -0.032037 -0.088800
0.024443 0.075237 -0.135026
0.043000 0.071562 -0.090906
0.157824 -0.003629 0.023026
0.205691 -0.027409 0.027114
0.125145 0.002110 0.032915
0.146869 -0.041443 0.048613
0.035282 0.055552 -0.092947
0.164869 -0.040825 0.043235
0.027884 0.075453 -0.120536
0.028824 0.070682 -0.110434
-0.004839 0.011174 -0.089570
-0.004293 0.008807 -0.087452
0.003873 0.039600 -0.115037
0.072331 0.058971 -0.013886
0.075338 0.007696 0.036693
0.118905 0.037025 -0.065907
0.074189 0.019600 0.028918
0.075234 0.014170 0.029978
-0.003466 0.002369 -0.076770
-0.002225 0.005551 -0.081384