# vtk DataFile Version 3.0
3D Unstructured Surface
ASCII
DATASET UNSTRUCTURED_GRID
POINTS 810 float
13.592009 32.322279 -29.092450
13.488766 32.293563 -29.267700
13.476443 32.122710 -29.069376
14.346580 30.273626 -25.610160
14.323709 30.465077 -25.775972
14.210639 30.239864 -25.819994
14.466705 33.968365 -29.470362
14.291405 33.830326 -29.634200
14.354312 33.771021 -29.438162
16.260005 31.360305 -23.403325
16.204029 31.198221 -23.353610
16.343763 31.322075 -23.247266
17.971128 34.829805 -23.730756
17.880379 34.636995 -23.724704
18.042042 34.770506 -23.562904
15.466064 30.982202 -24.286472
15.552497 30.869992 -24.067742
15.596711 31.058210 -24.145815
13.793539 32.864446 -29.386836
13.712991 32.649031 -29.271717
13.820393 32.720441 -29.146955
14.735921 30.627058 -25.195061
14.669192 30.449084 -25.182511
14.771066 30.457887 -25.018495
13.371705 32.104296 -29.262966
13.262894 32.069349 -29.445062
13.258501 31.903909 -29.238319
13.535950 29.874303 -26.753337
13.521708 30.044890 -26.887776
13.428025 29.857660 -26.932914
15.838721 34.597580 -27.571493
15.777064 34.447487 -27.510181
15.906025 34.535275 -27.372612
16.841844 32.126346 -23.154579
16.967030 32.129235 -22.959331
16.954662 32.282827 -23.110041
14.658486 30.261987 -25.073718
14.559460 30.340243 -25.293423
13.997339 33.181330 -29.387739
13.915216 33.256021 -29.646494
13.875540 33.067474 -29.482342
15.255265 34.761238 -28.896822
15.377655 34.804710 -28.704781
15.340711 34.914932 -28.912218
13.251815 31.739100 -29.039078
13.362013 31.926798 -29.051171
17.593947 32.900433 -22.604436
17.706266 33.103853 -22.602651
17.589252 33.041950 -22.735283
18.005808 33.716127 -22.681232
17.942228 33.828113 -22.887347
17.865437 33.640885 -22.837013
14.035139 33.095926 -29.202116
13.915470 33.011326 -29.331462
17.136829 34.397363 -24.873387
17.066056 34.206024 -24.818704
17.238722 34.405965 -24.688111
13.147654 31.878247 -29.439293
13.058332 31.857469 -29.602829
13.053652 31.730817 -29.449409
15.443491 34.998309 -28.806323
15.384404 35.069911 -29.012348
17.852444 33.928289 -23.130794
17.795180 33.752460 -23.059190
13.710362 32.528368 -29.120113
13.598573 32.466310 -29.267550
12.985553 31.580477 -29.404530
13.018576 31.473172 -29.198412
13.124104 31.702395 -29.262425
12.936090 31.282794 -29.143580
12.868424 31.334972 -29.354244
16.723697 31.966595 -23.206147
16.700766 31.794843 -23.098635
16.831069 31.959444 -23.032474
17.314595 32.653534 -22.841793
17.156280 32.589216 -23.043756
17.194014 32.461606 -22.873654
14.190448 30.417509 -25.970690
14.081493 30.210884 -26.022194
17.556514 34.413681 -24.104850
17.404197 34.178317 -24.163910
17.546553 34.244885 -23.967359
18.283474 34.998150 -23.361958
18.267476 35.140353 -23.500704
18.131897 34.965759 -23.575409
18.218998 34.790269 -23.293097
18.176666 34.629906 -23.226571
18.279541 34.699566 -23.123458
15.245841 34.885250 -29.067786
17.654661 33.253567 -22.820100
17.806691 33.292565 -22.610794
17.771968 33.461808 -22.821694
13.384531 32.404701 -29.627574
13.491237 32.444793 -29.459687
13.509011 32.608138 -29.633890
18.200589 34.518463 -23.093581
14.422295 34.013775 -29.613660
15.513024 34.939820 -28.598072
15.521760 35.186075 -28.874376
13.751047 30.094738 -26.517841
13.758899 30.273561 -26.617608
13.638630 30.065789 -26.695473
16.490322 31.453414 -23.136056
16.411110 31.492989 -23.288520
17.531049 33.097383 -22.879900
17.108120 32.158204 -22.759371
17.094035 32.300326 -22.899239
14.535349 30.213669 -25.249330
12.963123 31.689914 -29.592327
12.776994 30.565584 -28.711221
12.710096 30.381121 -28.683474
12.790292 30.393595 -28.531653
15.273216 35.051168 -29.216426
15.142755 34.738464 -29.095721
15.516352 35.404199 -29.150310
15.397453 35.304570 -29.274547
15.464209 35.257264 -29.077727
15.585405 35.123922 -28.672786
12.832575 30.123878 -28.221948
12.878781 30.085087 -28.103054
12.927791 30.200061 -28.095390
17.486549 34.771969 -24.552781
17.621541 34.988296 -24.486888
17.467758 34.905656 -24.707026
16.817647 34.316524 -25.401793
16.946155 34.451902 -25.293667
16.854004 34.446668 -25.466992
17.647170 34.830161 -24.303624
17.496384 34.630859 -24.409743
17.367565 34.591399 -24.616465
16.722212 34.358386 -25.628536
16.832635 37.753322 -29.356319
16.879952 37.902875 -29.480708
16.737821 37.718185 -29.525895
16.705306 34.529063 -25.843340
16.774468 34.724860 -25.912859
16.617338 34.613732 -26.106569
19.605869 37.441059 -23.755281
19.465425 37.326622 -23.801882
19.540901 37.252293 -23.641415
18.413804 35.291393 -23.398859
18.301677 35.307505 -23.580801
19.193886 36.711347 -23.540010
19.001938 36.530805 -23.615433
19.073268 36.471382 -23.473181
18.805401 36.610512 -23.946566
18.912193 36.568165 -23.764651
19.002348 36.806038 -23.864761
18.298372 35.740236 -23.937031
18.371834 35.663587 -23.758898
18.431108 35.891043 -23.856888
17.473462 38.376813 -28.848346
17.400728 38.398157 -29.063704
17.320179 38.230289 -28.966690
15.827671 36.195309 -29.492740
15.706091 35.977524 -29.473795
15.827632 36.104916 -29.372158
15.936458 36.276690 -29.356639
16.082251 36.521186 -29.353988
15.957301 36.430562 -29.517526
18.957004 39.146548 -26.984902
19.007761 39.264871 -27.113748
18.832475 39.117168 -27.162559
18.905228 39.294436 -27.362197
19.105294 39.439745 -27.254844
19.010573 39.464778 -27.477735
19.166579 39.361889 -27.004464
16.911010 34.304462 -25.211303
17.018114 34.437335 -25.140132
18.692688 35.948259 -23.526144
18.548103 35.736377 -23.556993
18.673744 35.731692 -23.377054
13.383046 32.266176 -29.450800
13.267696 32.211602 -29.619959
13.628310 32.639113 -29.430834
13.645407 32.829541 -29.639648
13.843106 30.078980 -26.348502
13.879661 29.964714 -26.212655
13.958010 30.160544 -26.201978
18.057124 34.478383 -23.290460
18.092149 34.326006 -23.099568
19.140356 38.332796 -25.344107
19.188038 38.464803 -25.463232
19.020707 38.342410 -25.529491
16.034342 36.213508 -29.057863
16.022183 36.321822 -29.224365
15.906518 36.130050 -29.230597
15.027882 34.722736 -29.308745
15.148575 34.880859 -29.260300
18.036124 34.026091 -22.918889
14.086520 33.371173 -29.454664
16.326745 37.092176 -29.574271
16.305498 36.945807 -29.418118
16.452100 37.142729 -29.350707
16.657735 34.143927 -25.518886
16.531820 34.939189 -26.625536
16.439173 34.987298 -26.860974
16.393495 34.817349 -26.766875
15.885619 35.980739 -29.085893
15.994020 36.028487 -28.913939
15.512757 35.505659 -29.284042
15.387954 35.424822 -29.446484
16.241152 36.364071 -28.797089
16.185386 36.197000 -28.712227
16.303819 36.328978 -28.618498
13.297956 29.973937 -27.241722
13.320371 29.842608 -27.114388
13.403324 30.023450 -27.084606
19.708884 38.269265 -24.563238
19.804823 38.207847 -24.376634
19.834032 38.380268 -24.553800
13.894368 30.316316 -26.411149
18.535518 35.326420 -23.249897
18.566550 35.500198 -23.342814
17.111655 38.087194 -29.228482
17.251172 38.247005 -29.162337
17.171232 38.243357 -29.349004
16.336068 34.625658 -26.665857
16.308008 34.428684 -26.495968
16.462401 34.611695 -26.406853
18.702042 39.128574 -27.441424
18.764638 39.258233 -27.568323
18.586851 39.139325 -27.699473
18.179485 34.145960 -22.799128
18.260796 34.372575 -22.872887
18.110645 34.201088 -22.957987
19.258656 37.745108 -24.476248
19.393405 37.809063 -24.386529
19.368832 37.926824 -24.547726
17.397514 38.215785 -28.754217
17.535273 38.357422 -28.662970
15.615061 35.408187 -28.951441
15.966320 34.971474 -27.758970
15.832388 34.829265 -27.852007
15.932085 34.790472 -27.618794
19.127570 36.971415 -23.861348
19.191332 37.124937 -23.928859
19.038239 36.999021 -23.999483
17.836905 34.987247 -24.092823
17.919946 34.927359 -23.898429
17.989750 35.123786 -23.939338
14.677930 34.365279 -29.559682
14.630049 34.187018 -29.428884
14.759403 34.362837 -29.395804
16.016934 35.372330 -28.108097
15.913906 35.336059 -28.269714
15.894504 35.194798 -28.148220
19.216545 36.550592 -23.368031
19.370219 37.379754 -23.964872
19.524732 37.511356 -23.920012
19.428143 37.569111 -24.090208
16.152623 35.001846 -27.435577
16.070480 34.802515 -27.370617
16.225796 34.928100 -27.213516
18.362992 34.915493 -23.174033
18.415816 34.807308 -23.006133
15.847011 35.513237 -28.605172
15.985992 35.649621 -28.482404
15.879119 35.691600 -28.748566
16.206160 36.763757 -29.398476
16.200297 36.871524 -29.562142
18.556266 38.725503 -26.967434
18.602424 38.852571 -27.109165
18.430890 38.708663 -27.196938
16.191746 34.287798 -26.550390
16.299336 34.262480 -26.320865
16.441457 34.426820 -26.240990
16.419483 34.285794 -26.122880
16.550715 34.426441 -26.031636
14.552124 34.193078 -29.588500
16.085032 34.568907 -27.076724
16.176181 34.724223 -27.081742
16.037172 34.641305 -27.249825
17.309522 38.393234 -29.276457
16.511221 37.089337 -29.138666
16.342688 36.877146 -29.237162
16.439090 36.890135 -29.033586
18.810367 35.969170 -23.384489
18.930676 36.018775 -23.267909
18.910264 36.145436 -23.399716
19.522797 38.878138 -25.629245
19.367385 38.800254 -25.720838
19.402943 38.712507 -25.537514
17.212634 34.770188 -25.081280
17.125002 34.823749 -25.307103
17.097335 34.604791 -25.150286
17.195077 38.099236 -29.048391
19.683249 37.644470 -23.878332
18.939326 37.626384 -24.762296
18.884202 37.459485 -24.662760
19.022149 37.581027 -24.600190
18.657192 38.989364 -27.260226
15.494806 35.605945 -29.450117
15.625117 35.699474 -29.289548
15.595442 35.781788 -29.459524
16.600351 34.217323 -25.706446
18.214961 35.540894 -23.905448
19.213726 37.872164 -24.672706
19.144285 37.704259 -24.573358
12.929051 30.058675 -27.986095
12.825987 29.957207 -28.107346
17.715387 38.659885 -28.773851
17.844806 38.730928 -28.593458
17.854143 38.832844 -28.766519
17.622016 34.627052 -24.174969
17.715791 34.574758 -23.960244
17.905171 33.495595 -22.638493
18.879336 39.542607 -27.873583
18.742922 39.484662 -28.041951
18.750442 39.396463 -27.861928
18.109632 34.681312 -23.377698
16.456087 37.305109 -29.573548
16.610187 37.404156 -29.354781
16.589710 37.510089 -29.559449
15.757106 35.924458 -29.292159
18.155910 34.838704 -23.433202
17.029653 38.082796 -29.417404
16.968818 37.914382 -29.287647
16.843384 34.565452 -25.610338
[...]
POINT_DATA 810
VECTORS Displacement float
0.362391 -0.051079 0.103750
0.358034 -0.054363 0.115400
0.369357 -0.040510 0.094776
0.182820 0.123474 -0.163740
0.223491 0.133823 -0.195728
0.192961 0.122036 -0.147806
0.294895 -0.122965 0.182362
0.294295 -0.125626 0.180000
0.301888 -0.120821 0.177462
0.095595 0.052195 -0.134075
0.087371 0.049879 -0.115190
0.080437 0.042125 -0.107034
0.180372 -0.015005 -0.358044
0.174121 -0.011295 -0.328196
0.170458 -0.018906 -0.339996
0.160936 0.115698 -0.246728
0.132703 0.100608 -0.211558
0.153789 0.107990 -0.235785
0.334061 -0.087446 0.141636
0.345409 -0.073231 0.128017
0.345907 -0.073841 0.122955
0.199979 0.136942 -0.242239
0.175408 0.128916 -0.211889
0.163434 0.125913 -0.215205
0.363395 -0.045196 0.108866
0.356106 -0.048349 0.118362
0.367799 -0.036109 0.100719
0.184650 0.080297 -0.019363
0.221392 0.087110 -0.046024
0.188275 0.072240 -0.005586
0.325079 -0.022180 0.057693
0.317636 -0.028387 0.046581
0.321775 -0.012775 0.038312
0.081156 0.021854 -0.168621
0.066570 0.016165 -0.155169
0.080438 0.015473 -0.179359
0.139714 0.113713 -0.175782
0.168540 0.124157 -0.187977
0.322761 -0.102630 0.154039
0.312084 -0.111021 0.161494
0.323960 -0.099674 0.152342
0.301635 -0.093238 0.147522
0.309945 -0.083610 0.137981
0.303389 -0.090132 0.145718
0.376285 -0.023800 0.079178
0.374287 -0.031298 0.086471
0.064853 -0.014033 -0.194264
0.070234 -0.019253 -0.204049
0.076448 -0.016550 -0.209717
0.089892 -0.026127 -0.224168
0.103972 -0.025013 -0.239453
0.096463 -0.024885 -0.232787
0.330261 -0.094126 0.142216
0.330330 -0.093526 0.144962
0.228271 0.026137 -0.231113
0.219644 0.016876 -0.203896
0.218478 0.020735 -0.248489
0.358346 -0.040647 0.112393
0.348568 -0.043769 0.118829
0.357148 -0.035817 0.108609
0.310609 -0.084009 0.142223
0.300896 -0.091311 0.146448
0.119556 -0.022489 -0.251706
0.111120 -0.023160 -0.243710
0.354038 -0.062768 0.113513
0.352227 -0.063310 0.121250
0.356947 -0.029977 0.101830
0.365124 -0.020972 0.084812
0.366896 -0.029695 0.096225
0.359010 -0.014394 0.075380
0.349776 -0.021772 0.091844
0.083203 0.028305 -0.157953
0.072434 0.028157 -0.131365
0.069131 0.022456 -0.142926
0.072305 -0.003134 -0.193007
0.083120 0.002884 -0.198844
0.068886 0.003994 -0.180346
0.230852 0.130691 -0.177410
0.202507 0.119516 -0.132106
0.186686 0.001619 -0.286550
0.182703 -0.000417 -0.246890
0.173847 -0.004485 -0.266241
0.166226 -0.032050 -0.344942
0.175324 -0.035253 -0.378196
0.176203 -0.024859 -0.366291
0.157702 -0.026569 -0.318003
0.149134 -0.024406 -0.298429
0.146159 -0.027666 -0.291542
0.295359 -0.096550 0.151086
0.086539 -0.020467 -0.222100
0.075509 -0.022865 -0.211006
0.091432 -0.023608 -0.228006
0.339369 -0.068001 0.134874
0.345963 -0.066693 0.130487
0.333189 -0.078738 0.140790
0.138311 -0.025063 -0.278619
0.289105 -0.125875 0.183460
0.318476 -0.074820 0.134472
0.312140 -0.085275 0.145176
0.213453 0.103762 -0.080159
0.249301 0.110839 -0.111692
0.217170 0.096211 -0.063027
0.072278 0.034586 -0.102444
0.086590 0.042711 -0.125880
0.086251 -0.016283 -0.218900
0.052980 0.010796 -0.144729
0.066265 0.009774 -0.167861
0.146251 0.114031 -0.161970
0.347277 -0.037914 0.113727
0.303506 0.010416 0.036121
0.275204 0.011479 0.040774
0.282608 0.015605 0.029553
0.288284 -0.097868 0.149126
0.293345 -0.101064 0.156621
0.296948 -0.095799 0.145210
0.285847 -0.097570 0.143347
0.300091 -0.092564 0.145927
0.321795 -0.076222 0.140786
0.243425 0.022322 0.030348
0.238519 0.025913 0.027754
0.259609 0.028839 0.014990
0.220651 0.018731 -0.335219
0.221159 0.009204 -0.385612
0.231242 0.021444 -0.352374
0.253253 0.033476 -0.166107
0.251945 0.038898 -0.198533
0.260496 0.041632 -0.177908
0.208930 0.007339 -0.360876
0.209616 0.014041 -0.313657
0.219735 0.021801 -0.291535
0.265488 0.038014 -0.147264
0.200865 -0.196522 0.049019
0.176948 -0.184075 0.031108
0.188679 -0.181285 0.042095
0.280894 0.048337 -0.142360
0.289732 0.053540 -0.157741
0.295162 0.050268 -0.115331
0.101231 -0.136759 -0.287419
0.114075 -0.148622 -0.333818
0.107599 -0.133493 -0.298285
0.170796 -0.046093 -0.376541
0.180323 -0.043205 -0.407299
0.137114 -0.130947 -0.374390
0.151262 -0.131405 -0.422567
0.144532 -0.120782 -0.388719
0.168899 -0.153112 -0.490634
0.159307 -0.141465 -0.456649
0.154452 -0.157038 -0.452139
0.194328 -0.073336 -0.491869
0.186566 -0.068287 -0.465802
0.187092 -0.089643 -0.492412
0.162938 -0.236313 -0.004954
0.149072 -0.211257 -0.003896
0.176121 -0.229189 0.012190
0.257129 -0.126109 0.122140
0.264409 -0.116424 0.128195
0.273468 -0.124016 0.132958
0.270742 -0.133590 0.129439
0.263049 -0.147286 0.119688
0.246899 -0.136662 0.112126
0.067496 -0.221948 -0.182498
0.053939 -0.191371 -0.154752
0.074125 -0.236368 -0.174041
0.052572 -0.189236 -0.135903
0.034906 -0.147445 -0.117856
0.033127 -0.146278 -0.104765
0.041421 -0.158289 -0.140736
0.243290 0.029938 -0.183497
0.243586 0.034865 -0.212568
0.166912 -0.092859 -0.435656
0.174197 -0.076277 -0.436907
0.163756 -0.075392 -0.398146
0.351554 -0.057476 0.124600
0.344304 -0.058502 0.129259
0.340590 -0.076413 0.135534
0.325993 -0.090641 0.147448
0.201094 0.106520 -0.086198
0.172939 0.099686 -0.067845
0.206090 0.114456 -0.112022
0.146776 -0.021083 -0.291640
0.131351 -0.023306 -0.269232
0.118844 -0.268296 -0.402193
0.109362 -0.259503 -0.373068
0.126593 -0.291910 -0.409009
0.303958 -0.134908 0.148563
0.284017 -0.139322 0.136365
0.288582 -0.127450 0.141697
0.284118 -0.107536 0.164045
0.285525 -0.102359 0.155900
0.111476 -0.024791 -0.246211
0.314480 -0.111573 0.163564
0.217455 -0.163376 0.074971
0.240502 -0.166807 0.093718
0.239800 -0.180529 0.088007
0.253565 0.022473 -0.135914
0.325480 0.040611 -0.060664
0.334727 0.031202 -0.024626
0.326405 0.037151 -0.031525
0.305981 -0.119139 0.151793
0.320780 -0.121987 0.157639
0.286443 -0.100059 0.141442
0.271746 -0.100722 0.136984
0.320448 -0.149371 0.147489
0.331314 -0.135100 0.153927
0.332281 -0.147278 0.145298
0.218144 0.065163 -0.008078
0.190729 0.063292 0.007688
0.223776 0.076350 -0.028194
0.084316 -0.147865 -0.254462
0.078877 -0.130547 -0.222166
0.073468 -0.123768 -0.205700
0.244632 0.118984 -0.133251
0.162382 -0.050120 -0.350303
0.166150 -0.059798 -0.380286
0.177145 -0.205394 0.024382
0.162528 -0.207405 0.010137
0.150768 -0.187657 0.007704
0.315632 0.035242 -0.037943
0.301992 0.028416 -0.052132
0.306799 0.044005 -0.072347
0.075658 -0.235374 -0.149276
0.058562 -0.200033 -0.126477
0.075549 -0.228525 -0.125927
0.109115 -0.025760 -0.239572
0.121204 -0.026175 -0.250813
0.119455 -0.024588 -0.254013
0.127544 -0.212508 -0.425052
0.115695 -0.193263 -0.381071
0.115468 -0.204824 -0.387774
0.188686 -0.252185 0.010017
0.173627 -0.257322 -0.009130
0.312839 -0.090387 0.148841
0.344380 -0.019474 0.087370
0.335312 -0.029965 0.089207
0.335615 -0.014772 0.068994
0.144530 -0.160315 -0.426552
0.139068 -0.167237 -0.418341
0.152561 -0.172321 -0.457517
0.201595 -0.006847 -0.395677
0.190954 -0.012059 -0.380971
0.196350 -0.019986 -0.415862
0.280670 -0.121179 0.181882
0.289851 -0.121118 0.182984
0.286597 -0.117937 0.179804
0.355666 -0.049630 0.127497
0.349594 -0.056959 0.136014
0.347696 -0.045998 0.124020
0.133655 -0.115792 -0.344469
0.122181 -0.165854 -0.374028
0.107968 -0.152756 -0.323288
0.115757 -0.171411 -0.363192
0.346477 0.001954 0.055477
0.336420 0.003085 0.045617
0.340904 0.015400 0.028116
0.154708 -0.032793 -0.311067
0.142884 -0.031908 -0.279667
0.339589 -0.080937 0.152972
0.348908 -0.084221 0.153904
0.333981 -0.095800 0.158566
0.249340 -0.158557 0.104576
0.226603 -0.154924 0.087442
0.127434 -0.329103 -0.229766
0.111576 -0.304971 -0.204635
0.134710 -0.331363 -0.197962
0.297454 0.013402 -0.044210
0.289764 0.019920 -0.066335
0.293543 0.036680 -0.081910
0.283817 0.027706 -0.087220
0.285485 0.040859 -0.107264
0.284476 -0.124278 0.184300
0.321268 0.009293 0.010924
0.329419 0.018377 0.012542
0.326928 0.002995 0.029925
0.137278 -0.188134 -0.003643
0.263079 -0.191237 0.102866
0.262512 -0.173146 0.108662
0.281310 -0.184035 0.117086
0.157633 -0.091470 -0.401211
0.148724 -0.090875 -0.367791
0.152736 -0.102536 -0.398184
0.068803 -0.165938 -0.239755
0.080315 -0.206254 -0.280662
0.084057 -0.204107 -0.292886
0.248666 0.038212 -0.284520
0.261498 0.043651 -0.265497
0.248665 0.040009 -0.243014
0.187523 -0.223836 0.026091
0.093751 -0.136370 -0.267568
0.157174 -0.251784 -0.497104
0.164698 -0.240285 -0.507540
0.150551 -0.235127 -0.484710
0.093808 -0.272564 -0.178174
0.270794 -0.103645 0.133917
0.286683 -0.105674 0.141148
0.268658 -0.108788 0.131524
0.264449 0.027677 -0.124654
0.195439 -0.053894 -0.470852
0.128674 -0.230064 -0.435194
0.137815 -0.228259 -0.456742
0.235349 0.030025 0.024395
0.214813 0.022993 0.040146
0.127213 -0.224685 -0.032849
0.123594 -0.236728 -0.046642
0.103457 -0.206944 -0.044481
0.196984 0.004948 -0.323531
0.184109 -0.002758 -0.318856
0.082029 -0.025195 -0.217607
0.024864 -0.130007 -0.076017
0.030378 -0.139662 -0.073949
0.041258 -0.162363 -0.092772
0.158468 -0.022012 -0.316202
0.208813 -0.170809 0.063748
0.226113 -0.190556 0.073281
0.199590 -0.176689 0.053249
0.285394 -0.115558 0.140659
0.166090 -0.024504 -0.337498
0.163947 -0.186296 0.019304
0.191382 -0.202382 0.038547
0.271016 0.048448 -0.178462
0.130333 -0.181242 -0.409569
0.205459 -0.102993 -0.526345
0.213681 -0.078429 -0.513392
0.206189 -0.077760 -0.512068
0.029219 -0.128978 -0.113212
0.132840 -0.171636 -0.406727
0.144135 -0.184598 -0.445755
0.272151 -0.100502 0.141960
0.344497 -0.011033 0.073653
0.317901 -0.009909 0.079056
0.330164 -0.018175 0.090623
0.089413 -0.209326 -0.063446
0.067103 -0.176898 -0.059095
0.076715 -0.181480 -0.052427
0.213444 -0.003336 -0.412371
0.097998 -0.186153 -0.035221
0.086686 -0.184556 -0.044668
0.077195 -0.221724 -0.261240
0.086017 -0.251864 -0.269989
0.090108 -0.251940 -0.295051
0.155727 -0.067663 -0.355048
0.152833 -0.078732 -0.364002
0.239171 0.034259 -0.275432
0.229553 0.026811 -0.308140
0.241012 0.031156 -0.318410
0.191572 0.135584 -0.252132
0.155751 0.123853 -0.225611
0.160179 -0.103585 -0.426019
0.154663 -0.116339 -0.420544
0.187813 -0.044772 -0.435362
0.183809 -0.032045 -0.401650
0.334497 0.027253 -0.001079
0.112639 -0.212767 -0.383314
0.101994 -0.186090 -0.335737
0.099990 -0.192249 -0.334057
0.059342 -0.105564 -0.176540
0.073456 -0.143457 -0.232956
0.064064 -0.111398 -0.184808
0.319754 -0.109241 0.157329
0.331913 -0.110189 0.160608
0.210669 -0.056820 -0.497002
0.202177 -0.065642 -0.497696
0.076599 -0.163713 -0.256008
0.062683 -0.133500 -0.208398
0.075716 -0.172817 -0.259583
0.236420 -0.146000 0.100244
0.186323 -0.021421 -0.390112
0.045632 -0.154398 -0.165963
0.036633 -0.122061 -0.143522
0.033278 -0.123535 -0.132210
0.062727 -0.177639 -0.222787
0.067897 -0.205075 -0.230057
0.054115 -0.099912 -0.167871
0.066204 -0.131341 -0.211371
0.081891 -0.223125 -0.281594
0.069283 -0.181537 -0.244504
0.055413 -0.139925 -0.197724
0.207677 0.137019 -0.229631
0.168546 -0.114381 -0.465016
0.049755 -0.153116 -0.182242
0.057445 -0.183730 -0.197684
0.108458 -0.174711 -0.345957
0.095376 -0.152473 -0.287930
0.094706 -0.158555 -0.291652
0.193258 -0.152938 -0.534208
0.204365 -0.145234 -0.536522
0.200073 -0.130079 -0.533969
0.019321 -0.113815 -0.082481
0.020506 -0.119902 -0.077692
0.118164 -0.318246 -0.292727
0.116615 -0.310610 -0.324365
0.103004 -0.291246 -0.287885
0.303513 -0.107223 0.149713
0.318480 -0.096657 0.153787
0.162380 -0.169783 -0.481110
0.073469 -0.233014 -0.212120
0.058706 -0.194138 -0.191181
0.056061 -0.192918 -0.173400
0.201995 -0.220131 0.041727
0.292500 -0.004221 -0.042321
0.302577 0.003380 -0.023954
0.298252 -0.010445 -0.024562
0.299369 -0.098427 0.152323
0.132264 -0.028009 -0.263093
0.156894 -0.056690 -0.339785
0.293319 -0.117066 0.178379
0.297658 -0.118876 0.178946
0.208347 -0.190896 0.057334
0.152265 -0.256161 -0.030813
0.150651 -0.238472 -0.018656
0.073585 -0.198591 -0.074636
0.133097 -0.152829 -0.387646
0.127072 -0.159007 -0.378842
0.177361 -0.194864 -0.518875
0.167417 -0.209861 -0.506353
0.181045 -0.214233 -0.524802
0.178012 -0.124460 -0.499222
0.187597 -0.133897 -0.523193
0.187424 -0.110526 -0.510716
0.079262 0.034959 -0.126509
0.064987 0.028097 -0.106697
0.177911 -0.090166 -0.467784
0.104190 -0.234363 -0.361118
0.122947 -0.263494 -0.417725
0.113855 -0.238683 -0.393160
0.148621 -0.142391 -0.423116
0.138354 -0.196309 -0.440921
0.125587 -0.194542 -0.408670
0.333323 -0.072119 0.143945
0.340823 -0.059247 0.134960
0.346053 -0.068661 0.145646
0.138730 -0.109459 -0.354588
0.164667 0.107272 -0.100327
0.160451 0.109832 -0.115927
0.080655 -0.144761 -0.244275
0.102790 -0.283230 -0.313753
0.118205 -0.304671 -0.353159
0.307988 0.018825 -0.027783
0.169303 -0.135119 -0.482782
0.044147 -0.159053 -0.155221
0.030822 -0.126221 -0.122003
0.179711 -0.106865 -0.490181
0.295312 -0.192436 0.119883
0.280875 -0.199980 0.110898
0.121159 -0.144156 -0.345828
0.045582 -0.127103 -0.169614
0.038859 -0.159198 -0.102479
0.129158 -0.139792 -0.361349
0.146955 -0.111152 -0.387039
0.071837 -0.222827 -0.228410
0.088112 -0.263610 -0.250935
0.328585 -0.056816 0.118220
0.321119 -0.067432 0.123676
0.323306 -0.057713 0.108875
0.099846 -0.275185 -0.153763
0.176881 -0.141757 -0.505657
0.102193 -0.156114 -0.311030
0.088458 -0.136209 -0.252399
0.141381 -0.147805 -0.405684
0.185362 -0.007863 -0.349972
0.265106 -0.204671 0.100105
0.244714 -0.206181 0.084762
0.247480 -0.195336 0.089892
0.038319 -0.115781 -0.148263
0.032848 -0.089656 -0.128286
0.065237 -0.195686 -0.086701
0.038441 -0.150897 -0.071539
0.047640 -0.161236 -0.068532
0.068813 -0.117570 -0.194202
0.054562 -0.185027 -0.096357
0.327816 -0.086472 0.152653
0.213929 -0.213136 0.055819
0.087983 -0.168026 -0.283527
0.076900 -0.142471 -0.236288
0.195648 -0.114162 -0.525267
0.194337 -0.001590 -0.353237
0.090204 -0.192350 -0.306665
0.207426 -0.018407 -0.438070
0.108236 -0.216684 -0.371261
0.120680 -0.236552 -0.414254
0.160795 -0.128767 -0.452444
0.095194 -0.192105 -0.320307
0.322639 -0.081276 0.146760
0.305768 -0.117974 0.168343
0.266572 -0.004635 -0.095456
0.258221 0.004056 -0.108490
0.268920 0.006194 -0.093364
0.095159 -0.227752 -0.330494
0.205624 -0.042553 -0.475733
0.198332 -0.034234 -0.448361
0.237652 -0.269895 0.039808
0.225736 -0.280374 0.019046
0.214043 -0.263767 0.025648
0.223619 -0.204948 0.067257
0.273532 -0.106768 0.157956
0.272663 -0.102571 0.148693
0.121548 -0.297768 -0.382388
0.101407 -0.268368 -0.332249
0.181219 0.087638 -0.034457
0.132790 0.104596 -0.216077
0.141335 0.111732 -0.227895
0.150779 -0.017272 -0.289953
0.163321 -0.012482 -0.300897
0.154026 -0.014134 -0.283127
0.083261 -0.232956 -0.109106
0.306557 -0.010182 -0.002746
0.312094 0.007592 -0.006458
0.316760 -0.002887 0.015383
0.099568 0.066800 -0.142749
0.121814 0.083763 -0.183612
0.104220 0.075354 -0.158991
0.134210 0.112940 -0.187567
0.159832 -0.017017 -0.309656
0.274352 0.033438 -0.115406
0.281896 -0.098884 0.145867
0.257446 0.074112 -0.044491
0.256248 0.087233 -0.065335
0.087927 -0.201375 -0.303963
0.328430 -0.029416 0.075048
0.324078 -0.046462 0.090581
0.110330 0.089849 -0.186279
0.112669 0.095793 -0.195623
0.240050 0.010665 -0.138669
0.249534 0.008054 -0.122560
0.318889 0.021134 -0.009213
0.226333 -0.250985 0.047293
0.199968 -0.241903 0.028212
0.209351 -0.234856 0.041534
0.291122 -0.095789 0.146188
0.285080 -0.113237 0.173228
0.292196 -0.112815 0.172943
0.100927 -0.267067 -0.128735
0.102794 -0.260143 -0.109615
0.173980 -0.174080 -0.509189
0.161647 -0.189239 -0.488460
0.091901 -0.236472 -0.094259
0.320260 -0.170414 0.133520
0.304741 -0.161675 0.137959
0.124501 -0.022774 -0.259893
0.148904 -0.261010 -0.482401
0.136619 -0.252386 -0.457710
0.142901 -0.269733 -0.468217
0.230184 -0.051045 -0.480548
0.220275 -0.049935 -0.490417
0.223495 -0.076925 -0.504315
0.301737 -0.098717 0.147297
0.324464 -0.002501 0.061592
0.305274 0.003736 0.052591
0.325133 0.005053 0.043192
0.321529 -0.037658 0.069977
0.274719 0.019855 -0.094572
0.132228 -0.285251 -0.432861
0.142279 -0.216127 -0.461531
0.153399 -0.205191 -0.478973
0.054074 0.005014 -0.157989
0.338110 -0.049422 0.120548
0.329066 -0.064883 0.131837
0.319223 -0.101310 0.154006
0.299277 -0.178923 0.127513
0.284744 -0.168920 0.125193
0.137171 -0.020692 -0.274368
0.142321 -0.018231 -0.274696
0.104570 -0.297403 -0.231305
0.093488 -0.275652 -0.200064
0.094492 -0.239086 -0.325348
0.173028 -0.007498 -0.304305
0.176769 -0.004070 -0.290944
0.240867 0.017783 -0.372895
0.230037 0.008534 -0.397889
0.312375 -0.020053 0.022311
0.351486 -0.102316 0.151958
0.342181 -0.106842 0.159585
0.151382 0.113251 -0.147000
0.184156 0.127742 -0.188333
0.261395 0.045881 -0.209941
0.308808 -0.190163 0.122621
0.226335 -0.231506 0.059435
0.239478 -0.219366 0.076345
0.253060 -0.235691 0.079497
0.263212 -0.222259 0.092673
0.273529 -0.238073 0.089213
0.102419 -0.216374 -0.352857
0.215541 -0.028757 -0.466378
0.278992 -0.213527 0.104689
0.285262 -0.224880 0.101001
0.103902 -0.296352 -0.260283
0.101630 -0.237185 -0.077266
0.222577 -0.005267 -0.428078
0.226763 -0.025040 -0.460732
0.186149 -0.176929 -0.529036
0.181664 -0.155462 -0.519790
0.123411 0.074916 -0.182240
0.134716 0.086747 -0.202095
0.113920 0.073061 -0.165814
0.257782 0.048279 -0.009160
0.231216 0.047498 0.007006
0.257769 0.061008 -0.025845
0.359518 -0.061162 0.130668
0.359598 -0.040921 0.110802
0.201619 -0.271700 0.006654
0.216834 -0.101349 -0.521005
0.316872 0.045656 -0.067599
0.320476 -0.136473 0.153757
0.309345 -0.147290 0.146429
0.158994 -0.296125 -0.066498
0.184844 -0.310580 -0.056435
0.172974 -0.317905 -0.082051
0.342179 0.020308 0.006167
0.297122 -0.208900 0.111816
0.137235 -0.277341 -0.451603
0.128030 -0.257711 -0.434623
0.143206 -0.245212 -0.472072
0.237328 0.032793 -0.238469
0.307481 0.050875 -0.103611
0.299235 0.053051 -0.136503
0.306285 0.049914 -0.132983
0.210464 -0.122721 -0.531133
0.110526 -0.273580 -0.367373
0.186970 -0.281632 -0.017597
0.171713 -0.288267 -0.041140
0.232284 0.037766 0.017363
0.343194 -0.007150 0.068674
0.351353 -0.013060 0.081039
0.249017 0.011698 0.046318
0.259787 0.014191 0.038553
0.212352 -0.290792 -0.004202
0.251976 0.032834 -0.319832
0.263854 0.031704 -0.309352
0.196755 -0.090862 -0.512284
0.354339 -0.065692 0.141645
0.356870 -0.080992 0.144280
0.237833 -0.025023 -0.446903
0.343037 -0.124546 0.152295
0.332479 -0.122959 0.158803
0.091256 -0.272673 -0.233936
0.122710 -0.325661 -0.261404
0.160376 -0.040572 -0.332071
0.150417 -0.037861 -0.297702
0.155227 -0.046496 -0.319040
0.222498 0.011359 -0.171055
0.210630 0.005145 -0.176478
0.288307 -0.151591 0.134610
0.146211 -0.300481 -0.091600
0.128727 -0.269010 -0.074361
0.357550 -0.023545 0.088658
0.352975 -0.029394 0.104936
0.274523 0.042146 -0.259179
0.225289 0.057262 -0.001433
0.142611 -0.330619 -0.167015
0.122871 -0.303089 -0.147272
0.151807 -0.328188 -0.137533
0.214888 -0.013209 -0.438425
0.233539 -0.003132 -0.423293
0.245450 -0.001919 -0.406082
0.254397 0.017067 -0.358637
0.159789 -0.223018 -0.497496
0.273265 0.050073 -0.217728
0.325628 0.029285 -0.011809
0.280175 0.052402 -0.182860
0.332323 -0.045007 0.105882
0.187655 -0.199682 -0.530660
0.193305 -0.183963 -0.534870
0.199304 -0.301390 -0.029212
0.270215 -0.160451 0.119362
0.173757 -0.227525 -0.517701
0.316375 0.046461 -0.095523
0.116257 -0.304635 -0.176014
0.140443 -0.264690 -0.053036
0.086980 0.035006 -0.149384
0.314595 -0.072265 0.115488
0.316541 -0.063521 0.100477
0.245621 -0.247133 0.066487
0.262291 -0.249711 0.075302
0.083850 -0.257713 -0.207132
0.250758 -0.259758 0.059330
0.296367 0.050473 -0.170587
0.130102 -0.297737 -0.116846
0.162203 -0.324350 -0.109722
0.086516 -0.003849 -0.208486
0.215806 0.135932 -0.213226
0.105250 -0.182314 -0.342662
0.228881 0.028077 -0.263504
0.263393 0.017477 -0.111302
0.267168 0.021415 0.023176
0.369261 -0.011685 0.065356
0.206550 0.028762 0.038245
0.323180 -0.102355 0.151546
0.236328 0.000273 -0.134246
0.338307 -0.083948 0.132085
0.234138 0.027614 -0.208088
0.232788 0.020616 -0.177529
0.105219 -0.022765 -0.238048
0.100519 -0.021332 -0.233179
0.165094 -0.009141 -0.280418
0.329232 -0.008528 0.049102
0.305249 -0.090296 0.141371
0.238046 0.125873 -0.156325
0.314828 -0.075930 0.128162
0.310494 -0.081819 0.129799
0.079441 -0.011387 -0.208574
0.090628 -0.009640 -0.216741
0.105936 0.063228 -0.150380
0.294300 -0.106219 0.163343