# vtk DataFile Version 3.0
3D Unstructured Surface
ASCII
DATASET UNSTRUCTURED_GRID
POINTS 810 float
13.579720 32.312755 -29.115159
13.478713 32.282680 -29.296260
13.461418 32.115856 -29.088982
14.352548 30.278390 -25.570253
14.326165 30.468883 -25.726666
14.217154 30.243633 -25.779488
14.476651 33.931844 -29.502561
14.305517 33.793570 -29.673336
14.362569 33.736180 -29.472453
16.242481 31.340454 -23.381766
16.188278 31.181214 -23.338925
16.329015 31.303375 -23.232864
18.000588 34.809967 -23.771957
17.904892 34.620149 -23.756940
18.074258 34.756824 -23.607065
15.447208 30.974168 -24.245918
15.535631 30.863481 -24.039205
15.575984 31.047182 -24.107003
13.793191 32.842726 -29.424381
13.707766 32.632435 -29.304024
13.813517 32.704007 -29.175211
14.732809 30.630665 -25.147145
14.670284 30.454371 -25.141633
14.770907 30.463239 -24.980343
13.358864 32.095825 -29.289115
13.251604 32.059446 -29.476797
13.242682 31.897454 -29.261260
13.542486 29.873331 -26.724926
13.525509 30.044434 -26.854905
13.433711 29.856726 -26.905638
15.774716 34.504205 -27.555053
15.709719 34.356042 -27.492066
15.835211 34.434641 -27.351734
16.824469 32.105452 -23.130186
16.953214 32.112379 -22.942525
16.937700 32.264172 -23.086862
14.662571 30.268818 -25.042322
14.563340 30.346003 -25.255056
14.000334 33.154289 -29.425356
13.925009 33.224843 -29.692172
13.879589 33.041144 -29.523401
15.248702 34.716901 -28.899494
15.363435 34.755531 -28.703887
15.336100 34.871530 -28.911832
13.232464 31.735166 -29.053454
13.344528 31.921824 -29.067898
17.587501 32.905360 -22.597109
17.702530 33.112799 -22.597996
17.582809 33.046590 -22.726910
18.016965 33.730889 -22.690340
17.955731 33.839685 -22.897314
17.872784 33.652452 -22.840989
14.032855 33.072357 -29.233180
13.915533 32.987719 -29.367352
17.099580 34.321723 -24.839485
17.023931 34.134592 -24.784330
17.210570 34.340984 -24.663793
13.133428 31.870080 -29.468521
13.045258 31.847836 -29.636812
13.037677 31.723356 -29.477359
15.435548 34.952957 -28.802999
15.385118 35.030235 -29.010176
17.866292 33.934572 -23.141307
17.803216 33.759713 -23.063570
13.700925 32.515453 -29.145948
13.590921 32.452817 -29.298037
12.967854 31.573831 -29.429735
12.998878 31.468267 -29.216208
13.106315 31.696716 -29.284087
12.915949 31.278003 -29.158729
12.849429 31.328731 -29.376451
16.706098 31.944106 -23.180631
16.686099 31.773981 -23.079872
16.816697 31.939989 -23.014385
17.302900 32.647217 -22.826875
17.140742 32.576164 -23.022687
17.181246 32.451002 -22.857758
14.193603 30.420657 -25.921927
14.088021 30.213620 -25.981645
17.557180 34.381564 -24.111422
17.391998 34.143415 -24.158678
17.546354 34.220129 -23.972885
18.322255 34.984818 -23.423302
18.307359 35.121707 -23.566808
18.167695 34.948260 -23.629423
18.255318 34.782571 -23.344647
18.210918 34.626879 -23.270832
18.315188 34.696804 -23.172659
15.246937 34.844885 -29.070192
17.650845 33.260191 -22.813911
17.806512 33.304501 -22.609418
17.773657 33.471737 -22.820551
13.381196 32.388222 -29.668978
13.486262 32.429533 -29.496360
13.509324 32.588070 -29.677554
18.233410 34.520001 -23.133797
14.436583 33.976307 -29.648943
15.495750 34.887850 -28.593441
15.518777 35.145040 -28.868665
13.756670 30.095039 -26.481505
13.761144 30.273958 -26.575019
13.643450 30.065569 -26.660777
16.476816 31.433877 -23.122612
16.394748 31.471894 -23.267878
17.523167 33.099296 -22.869253
17.097489 32.145756 -22.748890
17.080841 32.286720 -22.883288
14.541199 30.220092 -25.216924
12.947826 31.681279 -29.624178
12.763793 30.562316 -28.711987
12.700505 30.378398 -28.683764
12.780818 30.391632 -28.527103
15.280919 35.014967 -29.217407
15.143744 34.697873 -29.102034
15.524855 35.373039 -29.145939
15.408867 35.273289 -29.272630
15.469070 35.221845 -29.073544
15.573949 35.076457 -28.665828
12.829476 30.123935 -28.210064
12.876816 30.085590 -28.088630
12.923549 30.200219 -28.079699
17.480491 34.714588 -24.544137
17.627559 34.935295 -24.489686
17.460462 34.840912 -24.691475
16.755569 34.215033 -25.348883
16.893088 34.353751 -25.243461
16.794242 34.340828 -25.412771
17.654967 34.785884 -24.313376
17.491302 34.581425 -24.406662
17.350748 34.530280 -24.599798
16.653948 34.247719 -25.572516
16.804366 37.749565 -29.419735
16.849816 37.899077 -29.541668
16.712920 37.714218 -29.583450
16.636772 34.409790 -25.786366
16.712581 34.605209 -25.855532
16.545665 34.488875 -26.052232
19.652153 37.420484 -23.840020
19.516486 37.303107 -23.899986
19.588709 37.231400 -23.734578
18.456792 35.272679 -23.475673
18.343809 35.284962 -23.654450
19.251632 36.689442 -23.655148
19.062811 36.507246 -23.736531
19.131870 36.450418 -23.589242
18.870833 36.580864 -24.075050
18.975299 36.541805 -23.889918
19.065960 36.778108 -23.991557
18.346860 35.708377 -24.024943
18.420083 35.635330 -23.849060
18.484274 35.861023 -23.958332
17.435904 38.388965 -28.932646
17.362803 38.405710 -29.139673
17.282021 38.236664 -29.049575
15.844126 36.185938 -29.509289
15.723895 35.963609 -29.482443
15.842818 36.092814 -29.383521
15.949638 36.267558 -29.374919
16.091233 36.515182 -29.383717
15.970619 36.424928 -29.544348
18.974441 39.171480 -27.015876
19.021425 39.287264 -27.142643
18.845747 39.147050 -27.194539
18.913199 39.319937 -27.390459
19.115085 39.456411 -27.280979
19.015915 39.483777 -27.502659
19.181587 39.377151 -27.032677
16.855693 34.211646 -25.163156
16.970707 34.346920 -25.094986
18.747320 35.924868 -23.635115
18.598818 35.712102 -23.656085
18.724123 35.710997 -23.476192
13.375047 32.253759 -29.485125
13.260766 32.198132 -29.658863
13.625819 32.620860 -29.468474
13.649404 32.805415 -29.685071
13.849944 30.079827 -26.312634
13.888338 29.965558 -26.181550
13.964553 30.162302 -26.162967
18.087499 34.476814 -23.325809
18.120541 34.330673 -23.129766
19.196668 38.320736 -25.412421
19.240113 38.456915 -25.525048
19.077922 38.334462 -25.594970
16.043638 36.200337 -29.069494
16.032727 36.312155 -29.243245
15.919080 36.117092 -29.240928
15.036215 34.684840 -29.319189
15.156451 34.843495 -29.265796
18.056427 34.036822 -22.936808
14.092802 33.340622 -29.493607
16.322761 37.090179 -29.623615
16.303952 36.942620 -29.465179
16.443166 37.139088 -29.403514
16.586821 34.042364 -25.463712
16.467759 34.819686 -26.583802
16.376497 34.872470 -26.825828
16.322379 34.695148 -26.729650
15.896168 35.962942 -29.088544
16.001728 36.009743 -28.915651
15.525725 35.478730 -29.281612
15.404782 35.398082 -29.446715
16.246446 36.350605 -28.812920
16.190756 36.179595 -28.717976
16.308403 36.312987 -28.629454
13.300685 29.973788 -27.214133
13.325299 29.841963 -27.088604
13.406181 30.023060 -27.054063
19.749077 38.251155 -24.626804
19.842304 38.190951 -24.435703
19.868124 38.364002 -24.612832
13.897337 30.317545 -26.365992
18.579051 35.310014 -23.329732
18.612938 35.480725 -23.431078
17.075499 38.086978 -29.300869
17.213375 38.250070 -29.237149
17.134848 38.243077 -29.415957
16.257915 34.500714 -26.625909
16.225318 34.305927 -26.451067
16.385600 34.484752 -26.359447
18.707727 39.161994 -27.475079
18.767596 39.287706 -27.598133
18.585502 39.173789 -27.735320
18.203598 34.157431 -22.824147
18.290414 34.379860 -22.908017
18.136277 34.209750 -22.983668
19.318053 37.715944 -24.576111
19.448291 37.782741 -24.476326
19.424227 37.901405 -24.634186
17.360378 38.225412 -28.844360
17.499278 38.372893 -28.752832
15.617635 35.373519 -28.944376
15.916880 34.885757 -27.743658
15.782285 34.746425 -27.839552
15.873079 34.696771 -27.602812
19.188825 36.943877 -23.984195
19.251270 37.096691 -24.048379
19.102160 36.968897 -24.126901
17.858903 34.952068 -24.122709
17.946891 34.900317 -23.936654
18.020869 35.093476 -23.985689
14.691933 34.327476 -29.585323
14.639443 34.149487 -29.455682
14.768452 34.324805 -29.417618
15.993261 35.314004 -28.091368
15.893469 35.281392 -28.255367
15.865443 35.131099 -28.134563
19.272361 36.531563 -23.477657
19.424988 37.353238 -24.069276
19.574445 37.488158 -24.009517
19.481568 37.543074 -24.185561
16.095882 34.903386 -27.414321
16.005030 34.697890 -27.349618
16.162083 34.819543 -27.188070
18.401237 34.907161 -23.233714
18.452273 34.803764 -23.061678
15.841351 35.473949 -28.593369
15.980692 35.612382 -28.469218
15.880588 35.660949 -28.739467
16.209807 36.759853 -29.439083
16.203234 36.869299 -29.606243
18.576753 38.757449 -27.010866
18.617815 38.887513 -27.149606
18.442905 38.743185 -27.246017
16.106660 34.171904 -26.506473
16.214814 34.145350 -26.271358
16.361151 34.303176 -26.189883
16.337674 34.167617 -26.069651
16.474071 34.304680 -25.976842
14.566305 34.155266 -29.619260
16.008293 34.455544 -27.048522
16.103268 34.608811 -27.053808
15.965046 34.532892 -27.226264
17.272447 38.395793 -29.343952
16.501921 37.084083 -29.192133
16.341016 36.872304 -29.282651
16.435324 36.883550 -29.079843
18.864563 35.948706 -23.492440
18.984472 36.000763 -23.373981
18.966716 36.125166 -23.512038
19.557844 38.872347 -25.681443
19.406754 38.797941 -25.771877
19.444336 38.706188 -25.593078
17.182500 34.684319 -25.040576
17.088379 34.728039 -25.257375
17.056592 34.513816 -25.105349
17.157838 38.101614 -29.128295
19.727604 37.625170 -23.952002
19.007212 37.592315 -24.878967
18.953106 37.423102 -24.788562
19.088209 37.547051 -24.717606
18.667787 39.024713 -27.297324
15.512315 35.583219 -29.451065
15.639176 35.677190 -29.288814
15.613388 35.763244 -29.463100
16.525845 34.108139 -25.650169
18.258343 35.509683 -23.980752
19.274276 37.844381 -24.768041
19.207149 37.673073 -24.680346
12.927927 30.059436 -27.969342
12.826261 29.957936 -28.093969
17.682025 38.678825 -28.846625
17.815074 38.755484 -28.664419
17.824659 38.852756 -28.827296
17.627973 34.590227 -24.185666
17.729335 34.548789 -23.979976
17.909922 33.509555 -22.641475
18.877172 39.561230 -27.895471
18.737393 39.505464 -28.064409
18.747646 39.421252 -27.887661
18.143285 34.674076 -23.421967
16.444881 37.302604 -29.625882
16.592440 37.400232 -29.412540
16.571540 37.506742 -29.613995
15.771566 35.907635 -29.296285
18.191602 34.827044 -23.484436
16.995494 38.080297 -29.481955
16.936012 37.911789 -29.355949
16.783443 34.453559 -25.553760
[...]
POINT_DATA 810
VECTORS Displacement float
0.374680 -0.041555 0.126459
0.368087 -0.043480 0.143960
0.384382 -0.033656 0.114382
0.176852 0.118710 -0.203647
0.221035 0.130017 -0.245034
0.186446 0.118267 -0.188312
0.284949 -0.086444 0.214561
0.280183 -0.088870 0.219136
0.293631 -0.085980 0.211753
0.113119 0.072046 -0.155634
0.103122 0.066886 -0.129875
0.095185 0.060825 -0.121436
0.150912 0.004833 -0.316843
0.149608 0.005551 -0.295960
0.138242 -0.005224 -0.295835
0.179792 0.123732 -0.287282
0.149569 0.107119 -0.240095
0.174516 0.119018 -0.274597
0.334409 -0.065726 0.179181
0.350634 -0.056635 0.160324
0.352783 -0.057407 0.151211
0.203091 0.133335 -0.290155
0.174316 0.123629 -0.252767
0.163593 0.120561 -0.253357
0.376236 -0.036725 0.135015
0.367396 -0.038446 0.150097
0.383618 -0.029654 0.123660
0.178114 0.081269 -0.047774
0.217591 0.087566 -0.078895
0.182589 0.073174 -0.032862
0.389084 0.071195 0.041253
0.384981 0.063058 0.028466
0.392589 0.087859 0.017434
0.098531 0.042748 -0.193014
0.080386 0.033021 -0.171975
0.097400 0.034128 -0.202538
0.135629 0.106882 -0.207178
0.164660 0.118397 -0.226344
0.319766 -0.075589 0.191656
0.302291 -0.079843 0.207172
0.319911 -0.073344 0.193401
0.308198 -0.048901 0.150194
0.324165 -0.034431 0.137087
0.308000 -0.046730 0.145332
0.395636 -0.019866 0.093554
0.391772 -0.026324 0.103198
0.071299 -0.018960 -0.201591
0.073970 -0.028199 -0.208704
0.082891 -0.021190 -0.218090
0.078735 -0.040889 -0.215060
0.090469 -0.036585 -0.229486
0.089116 -0.036452 -0.228811
0.332545 -0.070557 0.173280
0.330267 -0.069919 0.180852
0.265520 0.101777 -0.265015
0.261769 0.088308 -0.238270
0.246630 0.085716 -0.272807
0.372572 -0.032480 0.141621
0.361642 -0.034136 0.152812
0.373123 -0.028356 0.136559
0.318552 -0.038657 0.138899
0.300182 -0.051635 0.144276
0.105708 -0.028772 -0.241193
0.103084 -0.030413 -0.239330
0.363475 -0.049853 0.139348
0.359879 -0.049817 0.151737
0.374646 -0.023331 0.127035
0.384822 -0.016067 0.102608
0.384685 -0.024016 0.117887
0.379151 -0.009603 0.090529
0.368771 -0.015531 0.114051
0.100802 0.050794 -0.183469
0.087101 0.049019 -0.150128
0.083503 0.041911 -0.161015
0.084000 0.003183 -0.207925
0.098658 0.015936 -0.219913
0.081654 0.014598 -0.196242
0.227697 0.127543 -0.226173
0.195979 0.116780 -0.172655
0.186020 0.033736 -0.279978
0.194902 0.034485 -0.252122
0.174046 0.020271 -0.260715
0.127445 -0.018718 -0.283598
0.135441 -0.016607 -0.312092
0.140405 -0.007360 -0.312277
0.121382 -0.018871 -0.266453
0.114882 -0.021379 -0.254168
0.110512 -0.024904 -0.242341
0.294263 -0.056185 0.153492
0.090355 -0.027091 -0.228289
0.075688 -0.034801 -0.212382
0.089743 -0.033537 -0.229149
0.342704 -0.051522 0.176278
0.350938 -0.051433 0.167160
0.332876 -0.058670 0.184454
0.105490 -0.026601 -0.238403
0.274817 -0.088407 0.218743
0.335750 -0.022850 0.129841
0.315123 -0.044240 0.139465
0.207830 0.103461 -0.116495
0.247056 0.110442 -0.154281
0.212350 0.096431 -0.097723
0.085784 0.054123 -0.115888
0.102952 0.063806 -0.146522
0.094133 -0.018196 -0.229547
0.063611 0.023244 -0.155210
0.079459 0.023380 -0.183812
0.140401 0.107608 -0.194376
0.362574 -0.029279 0.145578
0.316707 0.013684 0.036887
0.284795 0.014202 0.041064
0.292082 0.017568 0.025003
0.280581 -0.061667 0.150107
0.292356 -0.060473 0.162934
0.288445 -0.064639 0.140839
0.274433 -0.066289 0.141430
0.295230 -0.057145 0.141744
0.333251 -0.028757 0.133828
0.246524 0.022265 0.018464
0.240484 0.025410 0.013330
0.263851 0.028681 -0.000701
0.226709 0.076112 -0.343863
0.215141 0.062205 -0.382814
0.238538 0.086188 -0.367925
0.315331 0.134967 -0.219017
0.305012 0.137049 -0.248739
0.320258 0.147472 -0.232129
0.201133 0.051616 -0.351124
0.214698 0.063475 -0.316738
0.236552 0.082920 -0.308202
0.333752 0.148681 -0.203284
0.229134 -0.192765 0.112435
0.207084 -0.180277 0.092068
0.213580 -0.177318 0.099650
0.349428 0.167610 -0.199334
0.351619 0.173191 -0.215068
0.366835 0.175125 -0.169668
0.054947 -0.116184 -0.202680
0.063014 -0.125107 -0.235714
0.059791 -0.112600 -0.205122
0.127808 -0.027379 -0.299727
0.138191 -0.020662 -0.333650
0.079368 -0.109042 -0.259252
0.090389 -0.107846 -0.301469
0.085930 -0.099818 -0.272658
0.103467 -0.123464 -0.362150
0.096201 -0.115105 -0.331382
0.090840 -0.129108 -0.325343
0.145840 -0.041477 -0.403957
0.138317 -0.040030 -0.375640
0.133926 -0.059623 -0.390968
0.200496 -0.248465 0.079346
0.186997 -0.218810 0.072073
0.214279 -0.235564 0.095075
0.240674 -0.116738 0.138689
0.246605 -0.102509 0.136843
0.258282 -0.111914 0.144321
0.257562 -0.124458 0.147719
0.254067 -0.141282 0.149417
0.233581 -0.131028 0.138948
0.050059 -0.246880 -0.151524
0.040275 -0.213764 -0.125857
0.060853 -0.266250 -0.142061
0.044601 -0.214737 -0.107641
0.025115 -0.164111 -0.091721
0.027785 -0.165277 -0.079841
0.026413 -0.173551 -0.112523
0.298607 0.122754 -0.231644
0.290993 0.125280 -0.257714
0.112280 -0.069468 -0.326685
0.123482 -0.052002 -0.337815
0.113377 -0.054697 -0.299008
0.359553 -0.045059 0.158925
0.351234 -0.045032 0.168163
0.343081 -0.058160 0.173174
0.321996 -0.066515 0.192871
0.194256 0.105673 -0.122066
0.164262 0.098842 -0.098950
0.199547 0.112698 -0.151033
0.116401 -0.019514 -0.256291
0.102959 -0.027973 -0.239034
0.062532 -0.256236 -0.333879
0.057287 -0.251615 -0.311252
0.069378 -0.283962 -0.343530
0.294662 -0.121737 0.160194
0.273473 -0.129655 0.155245
0.276020 -0.114492 0.152028
0.275785 -0.069640 0.174489
0.277649 -0.064995 0.161396
0.091173 -0.035522 -0.228292
0.308198 -0.081022 0.202507
0.221439 -0.161379 0.124315
0.242048 -0.163620 0.140779
0.248734 -0.176888 0.140814
0.324479 0.124036 -0.191088
0.389541 0.160114 -0.102398
0.397403 0.146030 -0.059772
0.397521 0.159352 -0.068750
0.295432 -0.101342 0.154444
0.313072 -0.103243 0.159351
0.273475 -0.073130 0.139012
0.254918 -0.073982 0.137215
0.315154 -0.135905 0.163320
0.325944 -0.117695 0.159676
0.327697 -0.131287 0.156254
0.215415 0.065312 -0.035667
0.185801 0.063937 -0.018096
0.220919 0.076740 -0.058737
0.044123 -0.129755 -0.190896
0.041396 -0.113651 -0.163097
0.039376 -0.107502 -0.146668
0.241663 0.117755 -0.178408
0.118849 -0.033714 -0.270468
0.119762 -0.040325 -0.292022
0.213301 -0.205178 0.096769
0.200325 -0.210470 0.084949
0.187152 -0.187377 0.074657
0.393785 0.160186 -0.077891
0.384682 0.151173 -0.097033
0.383600 0.170948 -0.119753
0.069973 -0.268794 -0.115621
0.055604 -0.229506 -0.096667
0.076898 -0.262989 -0.090080
0.085002 -0.037231 -0.214553
0.091586 -0.033460 -0.215683
0.093823 -0.033250 -0.228332
0.068147 -0.183344 -0.325189
0.060809 -0.166941 -0.291274
0.060073 -0.179405 -0.301314
0.225822 -0.261812 0.100160
0.209622 -0.272793 0.080732
0.310265 -0.055719 0.141776
0.393820 0.066243 0.072058
0.385415 0.052875 0.076752
0.394621 0.078929 0.053012
0.083275 -0.132777 -0.303705
0.079130 -0.138991 -0.298821
0.088640 -0.142197 -0.330099
0.179597 0.028332 -0.365791
0.164009 0.014983 -0.342746
0.165231 0.010324 -0.369511
0.266667 -0.083376 0.207523
0.280457 -0.083587 0.209782
0.277548 -0.079905 0.201618
0.379339 0.008696 0.110768
0.370031 -0.002292 0.121667
0.376757 0.017701 0.110363
0.077839 -0.096763 -0.234843
0.067412 -0.139338 -0.269624
0.058255 -0.129558 -0.233783
0.062332 -0.145374 -0.267839
0.403218 0.100414 0.034221
0.401870 0.107710 0.024618
0.404617 0.123957 0.002670
0.116463 -0.024461 -0.251386
0.106427 -0.028364 -0.224122
0.345249 -0.041649 0.141169
0.354208 -0.046982 0.140718
0.332512 -0.065149 0.149467
0.245693 -0.154653 0.145183
0.223666 -0.152699 0.131543
0.106947 -0.361049 -0.186334
0.096185 -0.339913 -0.164194
0.122695 -0.365885 -0.148883
0.382540 0.129296 -0.088127
0.374286 0.137050 -0.115842
0.373849 0.160324 -0.133017
0.365626 0.145883 -0.140449
0.362129 0.162620 -0.162058
0.270295 -0.086466 0.215060
0.398007 0.122656 -0.017278
0.402332 0.133789 -0.015392
0.399054 0.111408 0.006364
0.174353 -0.190693 0.063852
0.272379 -0.185983 0.156333
0.264184 -0.168304 0.154151
0.285076 -0.177450 0.163343
0.103437 -0.071006 -0.293260
0.094928 -0.072863 -0.261719
0.096284 -0.082266 -0.285862
0.033756 -0.160147 -0.187557
0.040946 -0.203941 -0.229623
0.042664 -0.197788 -0.237322
0.278800 0.124081 -0.325224
0.298121 0.139361 -0.315225
0.289408 0.130984 -0.287951
0.224762 -0.226214 0.105995
0.049396 -0.117070 -0.193898
0.089288 -0.217715 -0.380433
0.095794 -0.203902 -0.381738
0.084491 -0.201151 -0.367294
0.083213 -0.307913 -0.141076
0.253285 -0.080919 0.134865
0.272624 -0.083390 0.140414
0.250712 -0.090244 0.135100
0.338955 0.136861 -0.180931
0.152057 -0.022683 -0.395548
0.068124 -0.202281 -0.339859
0.074951 -0.197073 -0.349754
0.236473 0.029264 0.007642
0.214539 0.022264 0.026769
0.160575 -0.243625 0.039925
0.153326 -0.261284 0.024319
0.132941 -0.226856 0.016296
0.191027 0.041773 -0.312834
0.170565 0.023211 -0.299124
0.077278 -0.039155 -0.214625
0.027028 -0.148630 -0.054129
0.035907 -0.160464 -0.051491
0.044054 -0.187152 -0.067039
0.124815 -0.014776 -0.271933
0.220019 -0.168304 0.116082
0.243860 -0.186632 0.131040
0.217760 -0.173342 0.107795
0.270934 -0.098735 0.144785
0.130398 -0.012844 -0.286264
0.198106 -0.183797 0.083855
0.224188 -0.199789 0.106849
0.330957 0.160341 -0.235040
0.072200 -0.152101 -0.298930
0.152297 -0.066225 -0.435054
0.168695 -0.038795 -0.444043
0.159170 -0.040922 -0.433800
0.016934 -0.140251 -0.086632
0.074564 -0.143285 -0.292432
0.081969 -0.153528 -0.323428
0.256079 -0.070221 0.143607
0.363798 -0.005609 0.089515
0.335338 -0.003262 0.099429
0.348416 -0.011063 0.114744
0.112019 -0.235418 -0.011865
0.087574 -0.197793 -0.019488
0.100945 -0.200351 -0.006758
0.196116 0.040927 -0.392222
0.129544 -0.198935 0.022264
0.114586 -0.200792 0.006957
0.042013 -0.229157 -0.219346
0.051219 -0.265713 -0.230713
0.050630 -0.260120 -0.251035
0.107742 -0.050313 -0.261894
0.101902 -0.060928 -0.263884
0.268821 0.114117 -0.310417
0.247005 0.094916 -0.330310
0.260500 0.107375 -0.348797
0.197576 0.133089 -0.298793
0.159110 0.119467 -0.262034
0.103268 -0.081230 -0.312192
0.095551 -0.094061 -0.302738
0.145833 -0.018222 -0.362400
0.145536 -0.009186 -0.339371
0.402655 0.143610 -0.032017
0.057949 -0.189698 -0.302700
0.052416 -0.164469 -0.261363
0.051156 -0.172375 -0.262623
0.031209 -0.092116 -0.117360
0.038381 -0.129093 -0.171437
0.034669 -0.096588 -0.124472
0.312397 -0.086023 0.153765
0.327059 -0.086061 0.155853
0.170484 -0.018009 -0.435408
0.157174 -0.030700 -0.421400
0.039064 -0.151695 -0.196063
0.030808 -0.123744 -0.152922
0.038057 -0.163734 -0.202666
0.227605 -0.142617 0.136531
0.152991 0.002167 -0.339916
0.023205 -0.162909 -0.133449
0.014590 -0.125204 -0.110616
0.014305 -0.129192 -0.101962
0.031134 -0.180591 -0.180864
0.037351 -0.214830 -0.192126
0.026659 -0.088520 -0.111942
0.033979 -0.118825 -0.152239
0.043227 -0.226084 -0.235016
0.034321 -0.180229 -0.196836
0.025069 -0.136659 -0.151867
0.208488 0.132899 -0.278424
0.109335 -0.088642 -0.346953
0.023487 -0.157750 -0.145763
0.031529 -0.194392 -0.163114
0.056911 -0.150240 -0.261485
0.049514 -0.131785 -0.216304
0.049015 -0.137923 -0.221478
0.128064 -0.117961 -0.413336
0.142115 -0.108226 -0.426982
0.140026 -0.094353 -0.425909
0.014382 -0.126171 -0.059229
0.019234 -0.135359 -0.055546
0.082466 -0.340073 -0.251626
0.074224 -0.325216 -0.279973
0.066996 -0.310187 -0.248272
0.292943 -0.084506 0.147353
0.313674 -0.067009 0.146660
0.096414 -0.138983 -0.350702
0.049642 -0.254619 -0.179240
0.035562 -0.209424 -0.158864
0.037294 -0.211778 -0.143136
0.236732 -0.219241 0.117603
0.378516 0.100631 -0.086047
0.386689 0.114848 -0.062149
0.382450 0.091864 -0.062829
0.305912 -0.054850 0.158706
0.098787 -0.030308 -0.217941
0.112021 -0.040659 -0.254966
0.288618 -0.079197 0.200549
0.292690 -0.082452 0.205473
0.231717 -0.186946 0.116895
0.185417 -0.277972 0.053162
0.186612 -0.255025 0.063559
0.090402 -0.226325 -0.033225
0.075657 -0.127298 -0.272403
0.071263 -0.132905 -0.268695
0.107808 -0.159206 -0.384969
0.098856 -0.173853 -0.373802
0.110410 -0.176605 -0.390581
0.116958 -0.095152 -0.379484
0.125269 -0.101281 -0.404558
0.129750 -0.079206 -0.400278
0.094782 0.056532 -0.146666
0.077526 0.047710 -0.119589
0.124047 -0.063369 -0.362000
0.053297 -0.221670 -0.295645
0.064410 -0.246808 -0.342877
0.058438 -0.220510 -0.319063
0.087246 -0.117495 -0.300612
0.077139 -0.164831 -0.324895
0.067820 -0.165511 -0.306283
0.345297 -0.025127 0.133660
0.362029 -0.003660 0.123356
0.359133 -0.021731 0.132215
0.082468 -0.090977 -0.244389
0.155690 0.104368 -0.132695
0.151748 0.105888 -0.148648
0.042529 -0.127500 -0.181404
0.061378 -0.295005 -0.269955
0.070328 -0.312084 -0.303502
0.390682 0.138142 -0.066553
0.106343 -0.107288 -0.358371
0.025167 -0.171380 -0.125122
0.015214 -0.134728 -0.093854
0.122276 -0.078257 -0.377471
0.299843 -0.184224 0.165673
0.290093 -0.193109 0.164015
0.068117 -0.120732 -0.240197
0.018757 -0.126629 -0.130254
0.037203 -0.182283 -0.077088
0.073582 -0.116708 -0.249547
0.089347 -0.091135 -0.273021
0.043280 -0.238116 -0.193043
0.058098 -0.284457 -0.214938
0.360484 0.007297 0.110607
0.347822 -0.008680 0.118709
0.360566 0.009109 0.102284
0.096997 -0.313113 -0.111658
0.112733 -0.111428 -0.380609
0.053783 -0.133740 -0.230858
0.045792 -0.117870 -0.186631
0.081576 -0.122633 -0.285610
0.162655 0.016319 -0.318811
0.279279 -0.198853 0.158433
0.264530 -0.201321 0.146767
0.261929 -0.190723 0.147301
0.014281 -0.116336 -0.112785
0.009280 -0.087050 -0.092645
0.076668 -0.225206 -0.051048
0.047756 -0.173138 -0.046910
0.060654 -0.183857 -0.040051
0.037376 -0.101868 -0.134256
0.060303 -0.213768 -0.066280
0.329281 -0.050146 0.143065
0.244484 -0.209957 0.125765
0.045538 -0.150420 -0.217905
0.040667 -0.126308 -0.173761
0.138191 -0.080117 -0.419394
0.177830 0.030083 -0.330306
0.045985 -0.178102 -0.242772
0.179786 0.019635 -0.399741
0.055263 -0.196723 -0.296776
0.062513 -0.213781 -0.331426
0.099258 -0.103652 -0.329981
0.048626 -0.174767 -0.252746
0.327862 -0.039718 0.138388
0.293998 -0.084312 0.212682
0.350850 0.088072 -0.152172
0.338797 0.100286 -0.166087
0.352465 0.108785 -0.149324
0.048800 -0.220080 -0.271693
0.168077 -0.006281 -0.417211
0.161616 -0.002434 -0.389832
0.268856 -0.270717 0.129463
0.257376 -0.285718 0.113265
0.249047 -0.269413 0.117738
0.248751 -0.200770 0.131432
0.258773 -0.071730 0.167168
0.257281 -0.069671 0.153283
0.068580 -0.297231 -0.325330
0.056164 -0.272377 -0.282823
0.173871 0.088320 -0.063864
0.147363 0.108111 -0.244479
0.154610 0.113886 -0.259686
0.125914 -0.013005 -0.262042
0.141999 -0.000924 -0.274700
0.135762 -0.006469 -0.262179
0.091145 -0.268183 -0.067576
0.387523 0.093723 -0.034501
0.393104 0.121444 -0.039404
0.393803 0.104774 -0.011445
0.116426 0.078735 -0.158416
0.141172 0.096652 -0.209407
0.120688 0.083959 -0.175509
0.132203 0.106123 -0.217862
0.131336 -0.008887 -0.274651
0.350763 0.149054 -0.171467
0.270067 -0.065808 0.146374
0.258408 0.074411 -0.076839
0.256230 0.087647 -0.101309
0.044653 -0.191120 -0.244020
0.385179 0.057396 0.061767
0.372241 0.029460 0.081179
0.123694 0.092038 -0.205581
0.123577 0.095284 -0.216741
0.309141 0.100879 -0.192577
0.325206 0.102495 -0.179363
0.397584 0.140561 -0.042555
0.260155 -0.251554 0.133165
0.236931 -0.246079 0.114416
0.244848 -0.235617 0.123414
0.283392 -0.060888 0.144596
0.276762 -0.074991 0.189534
0.289289 -0.073793 0.189947
0.105430 -0.305319 -0.082193
0.113095 -0.297491 -0.058708
0.106063 -0.141110 -0.377304
0.094924 -0.155900 -0.357106
0.105526 -0.270956 -0.046039
0.317839 -0.158271 0.159648
0.300888 -0.151714 0.165302
0.102282 -0.029315 -0.239521
0.082496 -0.230723 -0.377203
0.073262 -0.225147 -0.361829
0.077915 -0.243808 -0.373608
0.199306 -0.003429 -0.446884
0.185647 -0.006343 -0.444860
0.182310 -0.033974 -0.448420
0.292722 -0.070686 0.142552
0.341797 0.002730 0.073941
0.319996 0.008344 0.061128
0.341648 0.009107 0.047935
0.379584 0.046111 0.057010
0.356598 0.131720 -0.149667
0.071531 -0.270337 -0.357963
0.078972 -0.183331 -0.346085
0.087986 -0.171080 -0.352457
0.064221 0.013710 -0.168423
0.369671 0.015847 0.110007
0.350588 -0.009131 0.123859
0.312148 -0.073530 0.200107
0.299789 -0.170267 0.165810
0.283128 -0.161835 0.162560
0.112175 -0.022657 -0.248893
0.121678 -0.016920 -0.253605
0.081661 -0.327927 -0.194148
0.076928 -0.308318 -0.164505
0.049370 -0.236327 -0.271248
0.157051 0.011040 -0.282653
0.168518 0.019236 -0.277049
0.246236 0.086644 -0.392421
0.225428 0.067248 -0.401278
0.387356 0.077647 -0.002104
0.352210 -0.072567 0.141449
0.340047 -0.080200 0.152223
0.144210 0.107471 -0.179804
0.180122 0.122567 -0.229975
0.312783 0.149160 -0.263115
0.310810 -0.180086 0.162079
0.258272 -0.229207 0.136485
0.265333 -0.214865 0.144894
0.279300 -0.230821 0.152706
0.283602 -0.216233 0.158156
0.294292 -0.231011 0.157794
0.052121 -0.199910 -0.284074
0.186255 0.013833 -0.427953
0.292794 -0.206405 0.163277
0.300117 -0.216750 0.161461
0.074094 -0.321612 -0.222860
0.121403 -0.269144 -0.021156
0.206830 0.044954 -0.413960
0.203545 0.024441 -0.437787
0.117372 -0.141741 -0.399099
0.115460 -0.122889 -0.392752
0.144987 0.094210 -0.214045
0.156934 0.103866 -0.236512
0.133304 0.088999 -0.190289
0.260257 0.047947 -0.033489
0.230691 0.046893 -0.016414
0.259525 0.060996 -0.054350
0.375995 -0.010978 0.112428
0.386730 0.022248 0.091140
0.236383 -0.282470 0.101203
0.167124 -0.061410 -0.444214
0.388015 0.170945 -0.112248
0.313640 -0.121179 0.162737
0.302769 -0.135362 0.164107
0.182373 -0.326148 0.016684
0.208241 -0.334243 0.034735
0.191026 -0.346465 0.002364
0.401275 0.128224 -0.023752
0.305347 -0.199961 0.162865
0.074122 -0.256517 -0.367170
0.067309 -0.236104 -0.351403
0.078382 -0.214220 -0.365660
0.275911 0.115326 -0.276974
0.375700 0.175758 -0.154621
0.362815 0.175110 -0.191666
0.365685 0.169318 -0.186171
0.154105 -0.084641 -0.436832
0.059630 -0.270857 -0.310317
0.219491 -0.299241 0.076668
0.200636 -0.312457 0.048891
0.232440 0.036921 -0.002767
0.399708 0.087692 0.050776
0.398564 0.073178 0.062298
0.255585 0.013980 0.046307
0.266749 0.015951 0.035175
0.242989 -0.301882 0.092383
0.273399 0.115592 -0.357805
0.287264 0.119498 -0.353622
0.144587 -0.057256 -0.417588
0.368791 -0.017875 0.125817
0.364567 -0.041632 0.128625
0.219551 0.029942 -0.436714
0.339519 -0.102709 0.150605
0.327026 -0.102774 0.158933
0.065815 -0.298861 -0.198985
0.094334 -0.353325 -0.220455
0.119543 -0.027389 -0.261914
0.111474 -0.029095 -0.232385
0.113423 -0.033294 -0.243601
0.276653 0.088422 -0.214395
0.260099 0.072673 -0.215526
0.281360 -0.143039 0.160408
0.163279 -0.334991 -0.017632
0.150753 -0.302005 -0.004454
0.394525 0.052082 0.067843
0.390470 0.044578 0.088234
0.310656 0.141455 -0.312529
0.223667 0.057043 -0.027411
0.139012 -0.366000 -0.110168
0.123992 -0.341719 -0.094569
0.156127 -0.362717 -0.071442
0.192209 0.030494 -0.410810
0.223172 0.054520 -0.421780
0.240784 0.062553 -0.417330
0.264047 0.092997 -0.388753
0.092311 -0.187221 -0.370080
0.322268 0.157622 -0.274023
0.400293 0.150246 -0.045276
0.337759 0.167107 -0.240636
0.372901 0.027392 0.096286
0.117143 -0.162466 -0.398018
0.124013 -0.147185 -0.406692
0.227108 -0.318591 0.066505
0.266148 -0.154627 0.155642
0.103734 -0.189938 -0.385407
0.379134 0.167210 -0.143346
0.108964 -0.342263 -0.130697
0.168347 -0.292864 0.025008
0.104804 0.058309 -0.175763
0.346188 -0.012955 0.112604
0.357292 0.002284 0.094794
0.275298 -0.243995 0.146425
0.287731 -0.244296 0.151462
0.063728 -0.286029 -0.173699
0.279644 -0.256822 0.142511
0.350448 0.165947 -0.227023
0.140069 -0.335523 -0.054873
0.173643 -0.356512 -0.034084
0.100853 0.005538 -0.227833
0.214649 0.131756 -0.262527
0.054472 -0.159069 -0.263908
0.257538 0.100539 -0.292487
0.341954 0.123194 -0.167902
0.273472 0.022121 0.012728
0.390224 -0.007999 0.076100
0.204784 0.027708 0.021542
0.323512 -0.075585 0.183061
0.308549 0.082822 -0.190749
0.342903 -0.064072 0.162016
0.279957 0.110767 -0.248934
0.287271 0.105444 -0.222619
0.102759 -0.029322 -0.238915
0.102999 -0.026118 -0.238572
0.154493 0.006714 -0.265431
0.396080 0.092180 0.029987
0.318957 -0.042678 0.144161
0.234695 0.123624 -0.203714
0.337561 -0.021155 0.125754
0.332363 -0.029077 0.129749
0.089309 -0.010220 -0.221436
0.103399 -0.003814 -0.233789
0.124729 0.081384 -0.173734
0.295095 -0.065484 0.174597
0.379942 -0.002241 0.067178
0.210836 0.051841 -0.266672