# vtk DataFile Version 3.0
3D Unstructured Surface
ASCII
DATASET UNSTRUCTURED_GRID
POINTS 1756 float
19.731492 32.188752 -27.412083
19.872605 32.094138 -27.318478
19.867440 32.048428 -27.513361
19.726137 32.157314 -27.643453
19.576034 32.345810 -28.117357
19.552767 32.432838 -28.321473
19.432598 32.521782 -28.136545
19.652171 32.382898 -28.472530
19.680729 32.279217 -28.308353
19.722047 32.590178 -28.882009
19.563516 32.767910 -28.891425
19.550733 32.642554 -28.709905
19.706058 32.755425 -29.033652
19.683324 32.929124 -29.162362
19.578264 32.875570 -29.024821
19.650098 33.107116 -29.265942
19.824205 32.986533 -29.287725
19.853127 33.169106 -29.394340
20.043992 33.279913 -29.481823
19.849394 33.340864 -29.459922
19.928259 33.518026 -29.523447
20.164790 33.522365 -29.538819
20.315281 33.326222 -29.516884
20.412964 33.542789 -29.531421
20.268367 33.724837 -29.547267
20.487229 33.769323 -29.518914
20.684845 33.856093 -29.463666
20.502749 33.967519 -29.498474
20.882760 34.030649 -29.364573
20.658891 34.044998 -29.446043
21.182518 34.292693 -29.114669
21.085409 34.480809 -29.107516
20.955848 34.295994 -29.257020
21.462618 34.552018 -28.675556
21.322431 34.598808 -28.833413
21.428231 34.406034 -28.823760
21.797961 34.287004 -28.010271
21.818213 34.244016 -27.752367
21.733957 34.477344 -27.825641
21.883239 33.859928 -27.397089
21.822740 33.929482 -27.202670
21.830460 34.073202 -27.393873
21.776550 34.147168 -27.188717
21.758118 33.999325 -26.981331
21.720837 34.208920 -26.960804
21.204157 32.909860 -26.114691
20.981114 32.829669 -26.029187
21.049795 33.029627 -25.973269
20.595740 32.293112 -26.387534
20.504630 32.173317 -26.553918
20.390098 32.297799 -26.419342
20.319484 32.209702 -26.564382
20.362703 32.103523 -26.720668
20.128494 32.202402 -26.687980
20.237169 32.059531 -26.882429
19.798902 32.072939 -27.903455
19.631010 32.252933 -27.914920
21.696203 34.522990 -28.059872
21.745872 34.332106 -28.235740
20.861220 32.630365 -26.105338
20.788195 32.455892 -26.225254
20.659624 32.530894 -26.156300
20.666753 32.400504 -26.271302
19.730656 32.173588 -28.132645
19.708749 32.449612 -28.687935
20.042501 33.048234 -29.402544
19.749466 37.139249 -28.929893
19.990888 37.046519 -28.869715
19.881750 37.223949 -28.794124
20.731215 36.617171 -28.370299
20.644270 36.810634 -28.321491
20.611754 36.685220 -28.515002
20.563160 36.532417 -28.717289
20.725950 36.458012 -28.533800
21.544645 34.206177 -28.799607
21.572028 34.365652 -28.644613
21.101792 32.676690 -26.159784
20.979926 32.446681 -26.258528
20.565518 33.356797 -29.514038
20.693819 33.616413 -29.490206
20.885579 33.793059 -29.410679
21.576842 34.495721 -28.520436
21.673139 34.356172 -28.443571
21.911450 34.019923 -27.958481
19.446511 33.269178 -29.229966
19.497145 33.050696 -29.103945
20.139001 31.948529 -27.217327
20.004001 31.982950 -27.361571
19.980802 32.062762 -27.178262
19.815656 32.235906 -28.530909
19.845557 32.104598 -28.314714
19.949189 32.071066 -28.466022
20.333120 33.068263 -25.738066
20.527637 33.111626 -25.733865
20.426368 32.926216 -25.841551
21.284797 34.068206 -29.126392
21.373399 34.233217 -28.979271
21.761238 34.214550 -28.381551
21.839185 34.138441 -28.212396
21.897370 33.978671 -27.633159
21.813893 34.205260 -27.536938
21.869583 33.712608 -27.233828
21.773981 33.345772 -26.845486
21.735701 33.608855 -26.785522
21.837744 33.526637 -27.053941
20.809889 32.315465 -26.352131
19.876198 32.434040 -28.874341
19.864936 32.602359 -29.030379
19.856923 32.794311 -29.180480
20.254861 33.101821 -29.464496
21.480089 34.037582 -28.967544
21.988971 33.782597 -27.816000
21.345254 32.730960 -26.283172
20.735971 32.167607 -26.520849
20.971983 32.256477 -26.415356
19.896192 31.989348 -27.705317
19.899967 32.293022 -28.737106
20.013503 32.851676 -29.295428
20.463844 33.146283 -29.492824
21.099171 33.733269 -29.339487
21.037264 33.911974 -29.324434
21.642509 34.002585 -28.801851
21.684200 34.170625 -28.610642
21.961355 33.714507 -27.572821
20.441691 31.967653 -26.900769
20.839626 31.845695 -26.873682
20.658928 31.892261 -26.890660
20.792588 31.985503 -26.728409
19.888206 32.005933 -28.113240
20.043555 32.652511 -29.185577
20.221535 32.707247 -29.296250
20.222408 32.895494 -29.386428
20.712535 33.148554 -29.491103
20.837640 33.361211 -29.475589
21.298514 33.697604 -29.241763
21.196013 33.898456 -29.243393
21.930639 33.644939 -27.398422
21.524545 33.157943 -26.368284
21.560190 33.411489 -26.395368
21.665487 33.300200 -26.595190
20.587858 32.043099 -26.716091
19.971474 31.908631 -27.928544
20.975280 33.575927 -29.417910
21.936227 33.922928 -28.217096
21.914031 33.511732 -27.270390
21.879630 33.305017 -27.101912
21.137666 32.339187 -26.378694
20.488761 31.819325 -27.107543
20.278880 31.939656 -27.074120
20.001315 31.956067 -28.314198
21.197529 33.534512 -29.334266
21.841152 34.028207 -28.413067
21.487832 32.930132 -26.361032
21.368997 33.104553 -26.192538
20.054215 31.860003 -28.143415
19.997539 32.135163 -28.643801
20.086988 32.253867 -28.877395
20.383526 32.968389 -29.447131
21.078629 33.346136 -29.412507
21.998896 33.799033 -28.032531
22.038765 33.565240 -27.738704
21.987908 33.487550 -27.483772
21.437214 32.532954 -26.439103
21.222175 32.495471 -26.314105
21.305460 32.332833 -26.459700
20.163795 31.750434 -27.963277
20.037023 32.456812 -29.030427
20.415041 32.797246 -29.394343
21.569032 33.821964 -28.982876
22.055407 33.243218 -27.554257
21.974274 33.284137 -27.342711
20.569986 32.958271 -29.466291
20.937497 33.141918 -29.462201
21.588679 32.886309 -26.497898
21.541702 32.733048 -26.470032
21.423637 31.406481 -28.817204
21.278428 31.546684 -28.893980
21.218260 31.414731 -28.708203
20.771654 31.741359 -27.037661
20.182233 31.839044 -27.423302
20.313675 31.838360 -27.238838
20.413996 31.706229 -27.397192
20.230758 31.737224 -28.211238
20.801422 32.909352 -29.464541
21.400380 33.491956 -29.230558
21.498636 33.652092 -29.112824
21.809335 32.867659 -26.880620
21.737268 33.058619 -26.740222
21.841899 33.095034 -26.967987
21.677407 32.822767 -26.643415
21.175122 32.195222 -26.514437
20.975382 32.075203 -26.604590
20.123694 31.856474 -28.326450
20.227951 32.017444 -28.732467
21.184264 33.159204 -29.396497
21.291193 33.324421 -29.328723
21.587669 33.447967 -29.107674
21.672953 33.626409 -28.967147
21.735897 33.780294 -28.819834
22.068790 33.374678 -27.678832
22.105141 33.405242 -27.877418
21.755088 32.616949 -26.805316
18.274866 34.965760 -25.220536
18.235835 35.125970 -25.141198
18.424018 35.098110 -25.059227
21.507688 32.346602 -26.599279
21.365226 32.156067 -26.619243
21.000137 31.898122 -26.783361
20.124293 31.952133 -28.523291
20.674466 32.696532 -29.405210
20.445810 32.552094 -29.290605
18.045824 34.220452 -26.602682
18.121821 34.084109 -26.807067
17.921635 34.269507 -26.811024
22.063806 33.599529 -27.962039
21.913418 32.895366 -27.098507
21.938189 33.106307 -27.194236
21.621848 32.574193 -26.621984
20.450867 31.600144 -27.631183
20.294062 31.708930 -27.593459
20.106990 31.813145 -27.715392
20.295435 31.665221 -27.788436
20.337267 31.631638 -28.021194
20.416245 31.634487 -28.280352
20.340610 32.151752 -28.960458
20.214928 32.336643 -29.044563
20.227944 32.490462 -29.167110
21.066147 32.921225 -29.434459
21.476029 33.275724 -29.233678
22.032761 33.071198 -27.420234
21.422441 31.985526 -26.775531
21.246408 31.792459 -26.889503
21.196504 32.005283 -26.684970
20.287380 31.793374 -28.457079
20.949057 32.721568 -29.426919
21.937534 33.434039 -28.730875
21.883656 33.670478 -28.674953
21.812015 33.581218 -28.832007
22.049378 33.630412 -28.231354
22.123282 33.412003 -28.099003
21.887352 32.646476 -27.039052
21.682905 32.370435 -26.772051
21.553343 32.161100 -26.740444
20.978481 31.739307 -26.955919
20.922848 31.590724 -27.172067
20.653709 31.643438 -27.262304
20.493001 31.538687 -27.846821
22.167275 33.234071 -28.179580
22.161735 33.222150 -27.999721
21.834933 32.387760 -26.991987
21.722689 32.153924 -26.920978
21.379584 35.655524 -26.941515
21.316648 35.779901 -26.741873
21.321259 35.851249 -26.910804
20.615925 31.553576 -27.489177
20.429328 31.827932 -28.665515
20.263658 31.890162 -28.592856
22.020105 33.535440 -28.492267
22.114321 33.378612 -28.324458
22.117443 33.039662 -27.652109
22.002030 32.715940 -27.276795
20.543278 32.066891 -29.001553
20.489443 32.181879 -29.068678
20.418053 32.326315 -29.142069
20.649166 32.420829 -29.282082
21.009686 32.328482 -29.309774
21.047254 32.528080 -29.377384
20.866665 32.501182 -29.359112
21.359815 33.159232 -29.322701
21.690656 33.193062 -29.101029
21.802804 33.381546 -28.930144
22.072487 33.283890 -28.564859
22.118226 33.216909 -27.753286
22.079047 32.857221 -27.481893
21.997420 32.930773 -27.294204
21.514992 31.829202 -26.952862
18.951672 34.367509 -25.200385
18.758838 34.522822 -25.214488
18.934873 34.592715 -25.074037
20.554028 31.513154 -28.094877
21.243797 32.688156 -29.379452
21.312944 32.972180 -29.360102
21.268386 35.980387 -26.792959
21.278191 36.019952 -26.999314
21.153801 31.597242 -27.094434
20.843676 31.483461 -27.409091
20.782928 31.426707 -27.651971
20.617323 31.492800 -27.699830
21.519690 33.051705 -29.252920
21.962752 33.196219 -28.814944
22.168041 33.137983 -28.375154
21.591562 32.003837 -26.871583
20.515362 31.664473 -28.490948
20.426074 31.984007 -28.851565
20.624561 31.867417 -28.857967
21.952555 32.504195 -27.181352
20.696232 31.433556 -27.901127
20.587073 31.546167 -28.311795
21.091641 31.453361 -27.322394
20.774760 31.515894 -28.481181
20.772818 31.421308 -28.190907
21.959641 32.311466 -27.236554
21.859293 32.128553 -27.123723
21.421571 31.654843 -27.061802
21.570827 31.546646 -27.250468
21.327151 31.484504 -27.239959
21.476847 32.798331 -29.312282
21.707113 32.920151 -29.167665
21.863945 33.012568 -29.009233
22.207935 33.027787 -28.145931
22.154555 32.802058 -27.686747
22.184828 32.971265 -27.876605
22.102759 32.649480 -27.513481
21.080065 34.095768 -29.252520
21.003008 31.367883 -27.577824
20.934096 31.337296 -27.841515
20.815787 32.309978 -29.267943
21.174802 32.186847 -29.275352
21.233134 32.414188 -29.348184
[...]
POINT_DATA 1756
VECTORS Displacement float
-0.108492 -0.011352 0.009583
-0.112605 -0.013738 0.013578
-0.108740 -0.014428 0.014961
-0.103137 -0.012214 0.011153
-0.082734 -0.008810 0.009257
-0.072667 -0.006638 0.010173
-0.075798 -0.005282 0.006545
-0.068471 -0.007098 0.012930
-0.077529 -0.009517 0.012453
-0.046547 -0.001378 0.018309
-0.039816 0.002990 0.017925
-0.051033 -0.000654 0.014605
-0.035658 0.002775 0.021052
-0.025224 0.006976 0.024262
-0.031164 0.005930 0.020921
-0.015498 0.010984 0.027842
-0.020505 0.007367 0.027825
-0.012327 0.010394 0.031740
-0.010492 0.009887 0.035723
-0.005894 0.012936 0.035122
-0.002059 0.013874 0.039247
-0.007390 0.010735 0.040619
-0.014481 0.006978 0.039184
-0.013664 0.007311 0.042821
-0.007567 0.010263 0.044567
-0.014029 0.006977 0.046514
-0.020145 0.003807 0.048966
-0.014049 0.006481 0.049574
-0.026960 0.000051 0.052073
-0.019491 0.003602 0.051343
-0.039318 -0.007193 0.055269
-0.038809 -0.008109 0.056516
-0.031648 -0.003394 0.054920
-0.054118 -0.016718 0.056956
-0.049531 -0.014508 0.057413
-0.049731 -0.013434 0.056160
-0.066961 -0.022904 0.051471
-0.071213 -0.024916 0.048267
-0.071357 -0.025644 0.051241
-0.074339 -0.026628 0.038889
-0.078140 -0.027782 0.035570
-0.076060 -0.026902 0.040873
-0.079550 -0.028168 0.037417
-0.081618 -0.028725 0.031031
-0.082537 -0.029120 0.032604
-0.090257 -0.029160 0.005491
-0.094414 -0.026269 0.001887
-0.091895 -0.025927 -0.001731
-0.108940 -0.024212 0.014934
-0.112330 -0.023617 0.018518
-0.113198 -0.019599 0.011142
-0.115584 -0.019102 0.013882
-0.115503 -0.021523 0.019368
-0.117794 -0.015002 0.011180
-0.116969 -0.019531 0.019229
-0.096602 -0.013539 0.014255
-0.092310 -0.010633 0.009620
-0.067403 -0.023890 0.053872
-0.063072 -0.020906 0.053540
-0.098620 -0.025865 0.005938
-0.102295 -0.026192 0.011254
-0.104024 -0.022994 0.006200
-0.105853 -0.024504 0.011602
-0.086556 -0.011688 0.012945
-0.058149 -0.005012 0.015635
-0.018001 0.006566 0.032144
-0.046166 -0.047849 0.069893
-0.052188 -0.043719 0.065515
-0.052850 -0.049249 0.065524
-0.071515 -0.037471 0.050399
-0.072670 -0.040234 0.049391
-0.067654 -0.037120 0.053702
-0.061660 -0.033317 0.057889
-0.067050 -0.034212 0.054100
-0.050345 -0.013177 0.054507
-0.054528 -0.016052 0.055513
-0.093192 -0.029190 0.008984
-0.097526 -0.029081 0.014128
-0.019718 0.003803 0.042338
-0.021019 0.003387 0.046106
-0.026379 0.000641 0.049379
-0.057842 -0.018521 0.056136
-0.059039 -0.018672 0.054771
-0.065750 -0.022523 0.048381
-0.008411 0.015422 0.029766
-0.021245 0.010404 0.023945
-0.114901 -0.018829 0.021127
-0.112801 -0.016550 0.018271
-0.115502 -0.015262 0.015662
-0.069456 -0.009606 0.016009
-0.080557 -0.012298 0.015914
-0.074489 -0.012466 0.018322
-0.094320 -0.007763 -0.024734
-0.093537 -0.012826 -0.020335
-0.098168 -0.012316 -0.015949
-0.039997 -0.006906 0.053392
-0.044899 -0.010017 0.054871
-0.059638 -0.018850 0.053251
-0.062285 -0.020441 0.051596
-0.071170 -0.025071 0.043959
-0.074593 -0.026360 0.044738
-0.075883 -0.027708 0.034528
-0.078981 -0.030472 0.024786
-0.082001 -0.029755 0.023322
-0.077244 -0.029037 0.029741
-0.103189 -0.027765 0.016931
-0.051098 -0.005040 0.019741
-0.040836 -0.001159 0.021879
-0.030023 0.003189 0.024880
-0.018461 0.005079 0.035896
-0.045689 -0.010282 0.053244
-0.065771 -0.023497 0.044600
-0.087454 -0.031460 0.013072
-0.106371 -0.027907 0.021949
-0.098783 -0.030177 0.020656
-0.104092 -0.015148 0.016617
-0.059667 -0.008122 0.018706
-0.025803 0.003324 0.028728
-0.020744 0.003117 0.039324
-0.032371 -0.002769 0.049887
-0.031264 -0.001974 0.051334
-0.050109 -0.013185 0.052751
-0.054800 -0.015925 0.053742
-0.069555 -0.025407 0.040721
-0.113791 -0.024253 0.025169
-0.102826 -0.029995 0.031682
-0.108528 -0.027961 0.029460
-0.104988 -0.029603 0.028409
-0.089806 -0.014133 0.016740
-0.034555 -0.000811 0.026477
-0.030735 -0.000947 0.030850
-0.024208 0.002306 0.033028
-0.025235 -0.000054 0.042703
-0.026140 -0.000111 0.045289
-0.037514 -0.006004 0.050363
-0.035913 -0.004556 0.051693
-0.072139 -0.026739 0.037322
-0.084745 -0.031243 0.012584
-0.085390 -0.030389 0.012268
-0.082287 -0.031100 0.018390
-0.110858 -0.026399 0.024691
-0.097374 -0.015831 0.018844
-0.028880 -0.001127 0.047910
-0.060427 -0.020128 0.049596
-0.073131 -0.027832 0.034290
-0.074030 -0.029417 0.030712
-0.093366 -0.031187 0.019394
-0.111161 -0.025225 0.028943
-0.115280 -0.021356 0.023520
-0.081915 -0.014367 0.019298
-0.034429 -0.004712 0.048966
-0.057952 -0.018207 0.051667
-0.084532 -0.031832 0.013932
-0.087397 -0.030153 0.007138
-0.089315 -0.015903 0.020615
-0.065939 -0.011163 0.019801
-0.054188 -0.008967 0.022895
-0.023326 0.001811 0.036531
-0.031629 -0.003736 0.047307
-0.062196 -0.021733 0.047031
-0.064565 -0.024240 0.042004
-0.068608 -0.026350 0.037972
-0.084414 -0.032354 0.019303
-0.090675 -0.031271 0.016105
-0.087960 -0.032133 0.021700
-0.095795 -0.017734 0.023377
-0.044523 -0.004812 0.023827
-0.027941 -0.001046 0.035543
-0.045532 -0.010764 0.051576
-0.064107 -0.026218 0.038257
-0.068974 -0.027837 0.035211
-0.025686 -0.000371 0.039491
-0.029497 -0.003118 0.045301
-0.081679 -0.032309 0.018198
-0.082202 -0.032448 0.018532
-0.046437 -0.015081 0.053304
-0.047328 -0.015584 0.052380
-0.052760 -0.016131 0.049703
-0.103754 -0.028859 0.032961
-0.111033 -0.019744 0.023702
-0.112775 -0.022160 0.026038
-0.108196 -0.023129 0.028992
-0.085858 -0.017124 0.024438
-0.029322 -0.003552 0.042741
-0.038880 -0.007956 0.049558
-0.042136 -0.009292 0.050524
-0.073935 -0.031559 0.027620
-0.078168 -0.031719 0.023422
-0.074299 -0.030734 0.028487
-0.078507 -0.032367 0.022415
-0.092122 -0.031922 0.024437
-0.098982 -0.031103 0.026990
-0.081494 -0.015574 0.021950
-0.062451 -0.013144 0.024667
-0.033864 -0.006304 0.047497
-0.035993 -0.006921 0.048523
-0.042369 -0.010867 0.049674
-0.045753 -0.012109 0.050347
-0.049197 -0.013594 0.051034
-0.063290 -0.024978 0.040232
-0.060041 -0.023342 0.042618
-0.074088 -0.031949 0.027216
0.011534 0.051140 -0.148164
0.012665 0.048630 -0.156202
0.006282 0.042390 -0.151473
-0.081088 -0.032402 0.024679
-0.085126 -0.032267 0.026843
-0.097537 -0.031322 0.031461
-0.072493 -0.014133 0.021991
-0.031466 -0.004832 0.039710
-0.034910 -0.005194 0.034105
0.015676 0.054748 -0.065318
0.008479 0.048091 -0.050433
0.022665 0.055193 -0.054176
-0.061006 -0.022429 0.044739
-0.069618 -0.030266 0.031707
-0.069889 -0.029307 0.032836
-0.078648 -0.032493 0.023484
-0.101967 -0.022044 0.029883
-0.105762 -0.020730 0.026659
-0.104190 -0.018045 0.022292
-0.100235 -0.019721 0.026536
-0.091967 -0.018838 0.027094
-0.081245 -0.017987 0.028552
-0.051410 -0.011252 0.028358
-0.046128 -0.007743 0.026763
-0.039144 -0.004962 0.028610
-0.032747 -0.006525 0.046159
-0.039229 -0.009724 0.049078
-0.064761 -0.027598 0.036334
-0.081741 -0.031726 0.030631
-0.087108 -0.031359 0.033603
-0.090704 -0.032083 0.029570
-0.075080 -0.016174 0.025479
-0.032957 -0.007068 0.044419
-0.048634 -0.016139 0.048675
-0.051156 -0.015878 0.049853
-0.048115 -0.014318 0.049807
-0.057178 -0.020212 0.047254
-0.056582 -0.021603 0.044703
-0.068852 -0.030676 0.031452
-0.074805 -0.031835 0.027751
-0.078043 -0.031800 0.028544
-0.096981 -0.030507 0.033919
-0.096448 -0.028824 0.035467
-0.104509 -0.026438 0.032804
-0.095001 -0.020887 0.030621
-0.053375 -0.021271 0.044280
-0.055835 -0.022650 0.042821
-0.068833 -0.030660 0.031487
-0.071289 -0.030724 0.031178
-0.086584 -0.040524 0.033915
-0.088348 -0.041501 0.027473
-0.088059 -0.041949 0.030304
-0.101225 -0.024376 0.032777
-0.065028 -0.015732 0.029015
-0.069058 -0.014962 0.025056
-0.052605 -0.018140 0.048167
-0.053121 -0.019912 0.046158
-0.059743 -0.025662 0.039009
-0.064130 -0.028940 0.034795
-0.049778 -0.012891 0.033253
-0.046643 -0.011179 0.032478
-0.042653 -0.008715 0.031669
-0.037466 -0.008429 0.037882
-0.037886 -0.011382 0.045774
-0.035554 -0.009780 0.046084
-0.035465 -0.008782 0.042812
-0.036815 -0.008632 0.048501
-0.041956 -0.012762 0.049029
-0.045504 -0.014046 0.049144
-0.049287 -0.018190 0.047059
-0.059926 -0.024609 0.040486
-0.061147 -0.027221 0.037093
-0.065820 -0.028773 0.034704
-0.076492 -0.030502 0.033362
-0.020472 0.037191 -0.109215
-0.010338 0.041578 -0.119212
-0.015873 0.035185 -0.118063
-0.085828 -0.019654 0.031877
-0.035697 -0.010156 0.048352
-0.035944 -0.009080 0.048302
-0.089586 -0.042687 0.025259
-0.088791 -0.042752 0.029114
-0.088301 -0.029842 0.035834
-0.095376 -0.026361 0.035791
-0.092328 -0.023907 0.035771
-0.096123 -0.022700 0.033030
-0.038790 -0.011105 0.049020
-0.045752 -0.016219 0.047944
-0.049941 -0.019983 0.045154
-0.075162 -0.030937 0.031283
-0.071662 -0.017373 0.030948
-0.056674 -0.013807 0.029565
-0.055661 -0.015317 0.034667
-0.064755 -0.029495 0.033952
-0.088532 -0.021556 0.034827
-0.077573 -0.018567 0.032695
-0.087341 -0.027761 0.037294
-0.068260 -0.018094 0.037881
-0.077918 -0.019708 0.037107
-0.062741 -0.028766 0.035054
-0.065393 -0.029253 0.033923
-0.078271 -0.029743 0.035002
-0.070427 -0.027746 0.035968
-0.079251 -0.028304 0.036759
-0.037447 -0.011631 0.049482
-0.040013 -0.013451 0.049165
-0.042345 -0.014968 0.048433
-0.051635 -0.021787 0.043131
-0.056655 -0.025458 0.039047
-0.055028 -0.023865 0.040905
-0.058659 -0.026880 0.037481
-0.033765 -0.003568 0.053320
-0.086108 -0.025183 0.038224
-0.082796 -0.022596 0.038815
-0.038987 -0.010678 0.041443
-0.038902 -0.013047 0.049452
-0.036834 -0.011788 0.049284
-0.060618 -0.027995 0.036182
-0.054241 -0.025037 0.039318
-0.055678 -0.025958 0.038407
-0.113458 -0.010600 0.008348
0.000296 0.022665 0.032648
0.002914 0.022734 0.036180
0.011088 0.024966 0.042023
-0.056845 -0.087941 0.003163
-0.062694 -0.082794 0.003187
-0.060293 -0.085361 -0.005967
-0.062987 -0.027841 0.035656
-0.060115 -0.027520 0.036450
-0.081269 -0.021091 0.038094
-0.045752 -0.015490 0.050261
-0.045766 -0.014896 0.045563
-0.052194 -0.016012 0.042141
-0.037410 -0.013211 0.052154
-0.038480 -0.014846 0.050094
-0.040162 -0.015262 0.048803
-0.038306 -0.013811 0.050205
-0.047740 -0.020251 0.044278
-0.048871 -0.021767 0.042512
-0.057981 -0.026970 0.037356
-0.070209 -0.028852 0.034621
-0.063860 -0.026983 0.036214
-0.069459 -0.026029 0.037336
-0.077717 -0.025801 0.038595
-0.043073 -0.016965 0.047181
-0.041652 -0.017347 0.046881
-0.044476 -0.018752 0.045500
-0.051962 -0.023535 0.040822
-0.051178 -0.023716 0.040453
-0.074895 -0.023528 0.040161
-0.037252 -0.013893 0.051971
-0.036990 -0.012374 0.050577
-0.052048 -0.016350 0.047621
-0.058470 -0.017039 0.041950
-0.060368 -0.017354 0.044152
-0.040954 -0.016422 0.047825
-0.039686 -0.016193 0.048495
-0.052741 -0.024597 0.039633
-0.053448 -0.025001 0.039275
-0.056104 -0.025963 0.038238
-0.069422 -0.029693 0.033368
-0.064722 -0.026089 0.036684
-0.067913 -0.024025 0.038637
-0.075265 -0.020379 0.040677
-0.067926 -0.018571 0.042263
-0.038823 -0.014054 0.053571
-0.041843 -0.014424 0.050196
-0.041334 -0.014848 0.054189
-0.038699 -0.014567 0.055845
-0.037501 -0.014122 0.054156
-0.062485 -0.016881 0.035302
-0.046782 -0.018454 0.046209
-0.042928 -0.018806 0.045216
-0.045661 -0.020193 0.043883
-0.048030 -0.022054 0.041970
-0.046592 -0.021047 0.042966
-0.044596 -0.020176 0.043689
-0.080533 -0.027141 -0.023409
-0.082852 -0.031777 -0.013807
-0.083819 -0.030372 -0.010250
-0.049652 -0.023170 0.040921
-0.071246 -0.020960 0.041980
-0.037905 -0.015091 0.050844
-0.040524 -0.017330 0.047156
-0.062197 -0.024527 0.037485
-0.055787 -0.018123 0.049751
-0.059437 -0.017183 0.046746
-0.059817 -0.025293 0.037334
-0.058975 -0.026102 0.037236
-0.038894 -0.016184 0.049362
-0.005828 0.014508 0.032702
-0.055446 -0.025209 0.038405
-0.051605 -0.023911 0.040023
-0.055047 -0.024276 0.038424
-0.065036 -0.018632 0.044496
-0.040174 -0.014781 0.056416
-0.037879 -0.015289 0.051989
-0.064076 -0.021073 0.040487
-0.056488 -0.016881 0.046602
-0.037350 -0.014561 0.052942
-0.037698 -0.014710 0.054643
-0.041748 -0.018443 0.045553
-0.046356 -0.021395 0.042496
-0.056236 -0.023409 0.038075
-0.060824 -0.018636 0.043312
-0.042609 -0.014887 0.055640
-0.043076 -0.015139 0.054676
-0.038809 -0.016153 0.049561
-0.039967 -0.017141 0.047549
-0.043466 -0.019627 0.044039
-0.010878 0.046894 -0.105622
-0.004512 0.047800 -0.117397
-0.014849 0.042951 -0.109252
-0.038505 -0.014797 0.055942
-0.058457 -0.022038 0.038536
-0.051277 -0.015654 0.050080
-0.040603 -0.017550 0.046514
-0.052310 -0.023649 0.039267
-0.050942 -0.022251 0.039379
-0.047992 -0.022210 0.041522
-0.048716 -0.022102 0.040565
-0.083838 -0.048037 -0.076914
-0.081606 -0.053504 -0.083420
-0.086982 -0.052206 -0.071190
-0.055345 -0.019124 0.040601
-0.041875 -0.014626 0.054609
-0.039831 -0.014706 0.055997
-0.045195 -0.020604 0.042800
-0.052997 -0.021619 0.038691
-0.045562 -0.020527 0.041905
-0.038636 -0.015095 0.053182
-0.038146 -0.015278 0.052935
-0.046414 -0.020328 0.040538
-0.039077 -0.016044 0.049258
-0.051416 -0.019792 0.039494
-0.050296 -0.017874 0.041142
-0.052574 -0.016814 0.043751
-0.049481 -0.015432 0.047289
-0.043002 -0.018504 0.042064
-0.048351 -0.020198 0.039633
-0.045575 -0.014800 0.051228
-0.046896 -0.018084 0.040715
-0.046866 -0.016143 0.043857
-0.039744 -0.014828 0.053037
-0.040742 -0.017156 0.045375
-0.042686 -0.018834 0.044025
-0.039381 -0.015584 0.049215
-0.062282 -0.003926 0.011871
-0.084251 -0.023121 -0.017179
-0.085779 -0.024034 -0.011396
-0.084104 -0.020743 -0.020410
-0.044048 -0.018267 0.040965
-0.064556 -0.002573 0.008623
-0.088517 -0.028176 0.001498
-0.086930 -0.029786 0.007137
-0.041130 -0.016715 0.043687
-0.085623 -0.029275 0.020372
-0.087060 -0.028915 0.012155
-0.086905 -0.029041 0.015614
-0.044666 -0.015032 0.047320
-0.042594 -0.016050 0.044278
-0.041780 -0.014833 0.050675
-0.017418 0.002555 0.054156
-0.015057 0.005070 0.052280
-0.022164 0.001482 0.053547
-0.040364 -0.015329 0.047797
-0.089625 -0.028047 0.001516
-0.053219 -0.015698 0.051472
-0.069949 0.019397 -0.060369
-0.061679 0.022542 -0.068277
-0.069340 0.015500 -0.061673
-0.083713 -0.026795 -0.014174
-0.082311 -0.022530 -0.023092
-0.079996 -0.022945 -0.028159
-0.049112 -0.033616 0.065121
-0.049036 -0.029174 0.064251
-0.055927 -0.033384 0.061469
0.043372 -0.005237 0.064329
0.040499 -0.011368 0.068326
0.050939 -0.006552 0.068781
-0.077931 -0.027837 0.042193
-0.074463 -0.029771 0.052335
-0.078046 -0.032790 0.049597
-0.074562 -0.031813 0.053006
-0.054146 -0.063718 0.061564
-0.058250 -0.070975 0.052233
-0.051253 -0.071261 0.060800
-0.086935 -0.025064 -0.006227
-0.087563 -0.027152 0.002441
-0.087624 -0.025809 -0.003174
-0.081426 -0.032053 0.018307
-0.083226 0.012729 -0.024466
-0.074052 0.014188 -0.023639
-0.068422 0.019113 -0.031188
-0.073136 -0.029209 -0.052401
-0.077024 -0.031587 -0.040168
-0.069494 -0.026293 -0.052389
-0.047241 -0.066945 0.067052
-0.039078 -0.067729 0.073374
-0.046564 -0.060044 0.069557
-0.046180 -0.019372 0.060420
-0.044675 -0.017525 0.059219
-0.050908 -0.021289 0.059659
-0.019999 0.030771 -0.025019
-0.007661 0.033599 -0.020598
-0.008976 0.036723 -0.032283
-0.049710 -0.026466 0.063456
-0.054996 -0.030273 0.061563
0.048498 0.012430 0.061639
0.045027 0.017342 0.061925
0.042939 0.013119 0.060050
-0.081811 -0.063515 0.013607
-0.078112 -0.063950 0.021966
-0.082942 -0.058820 0.021442
-0.014040 0.031379 -0.124906
-0.007228 0.032614 -0.136429
-0.013517 0.027174 -0.130109
-0.041944 -0.007402 -0.101088
-0.047175 -0.012463 -0.095867
-0.052267 -0.014309 -0.082963
-0.092885 0.012299 -0.033678
-0.080157 0.019127 -0.043225
-0.083439 0.016370 -0.045510
-0.070066 -0.029797 0.055602
-0.069932 -0.027848 0.055292
-0.047810 -0.014211 0.039436
-0.041666 -0.013100 0.044641
0.019165 0.019830 0.054385
0.010982 0.015407 0.053550
0.015678 0.015435 0.055372
-0.052471 -0.019013 0.058616
-0.054595 -0.018652 0.058065
-0.058170 -0.022535 0.058407
0.035436 0.062576 -0.055117
0.044680 0.071400 -0.062041
0.038888 0.070051 -0.072168
0.008633 0.052547 -0.136688
-0.000892 0.046637 -0.127976
0.004004 0.051807 -0.126028
-0.076213 -0.024861 -0.034528
-0.080003 -0.029222 -0.023650
-0.075338 -0.027222 0.047244
-0.081198 -0.031725 0.042985
-0.080581 -0.033326 0.045714
-0.078099 -0.030746 0.048134
-0.066978 -0.024808 0.055511
-0.070790 -0.026659 0.053673
-0.068131 -0.024010 -0.051185
-0.061006 -0.019665 -0.065595
-0.084317 -0.034279 0.036033
-0.082573 -0.033736 0.041353
-0.083429 -0.032434 0.037520
-0.012218 -0.050182 0.084840
-0.010460 -0.056569 0.086720
-0.002089 -0.049500 0.086916
-0.003556 0.002740 -0.171527
-0.009326 -0.005116 -0.168693
-0.013986 -0.002351 -0.158569
-0.074514 -0.059628 0.036915
-0.078404 -0.059492 0.029447
-0.075319 -0.063217 0.029915
-0.071057 -0.075601 0.008297
-0.074744 -0.074146 0.000485
-0.068048 -0.079154 -0.001383
-0.067455 -0.029394 0.056472
-0.072433 -0.032727 0.053975
-0.087822 -0.027562 0.003933
-0.000813 0.038480 -0.141867
0.003744 0.045346 -0.140799
-0.091410 -0.043309 0.018597
-0.091507 -0.042799 0.013440
-0.093324 -0.043756 0.010979
0.004265 0.033895 -0.158415
0.010907 0.042046 -0.162385
-0.036038 -0.101449 -0.011908
-0.031887 -0.102667 -0.002054
-0.038867 -0.100668 -0.000629
-0.019855 -0.005341 0.056832
-0.018428 -0.002772 0.055552
-0.028322 -0.008350 0.056826
-0.083138 -0.039657 0.042297
-0.080279 -0.038369 0.046063
-0.079772 -0.037231 0.047485
-0.067276 -0.072702 0.031594
-0.070320 -0.073843 0.018324
-0.064603 -0.078607 0.019934
-0.018352 -0.093640 0.048062
-0.020612 -0.097807 0.035888
-0.011616 -0.093424 0.043977
-0.027462 -0.095146 0.045238
-0.029841 -0.098708 0.032365
-0.027337 -0.102963 0.007405
-0.031051 -0.101222 0.018062
-0.033894 -0.101905 0.007336
-0.090309 -0.014749 -0.021721
-0.085899 -0.010188 -0.031435
-0.088084 -0.016310 -0.022169
0.024987 0.025486 0.054839
0.030745 0.025643 0.058864
0.024049 0.026437 0.053589
-0.055163 -0.089850 -0.008569
-0.056366 -0.088088 -0.018245
-0.021690 -0.090389 0.058273
-0.045144 -0.097126 0.002370
-0.041331 -0.098499 0.011977
-0.037039 -0.001478 -0.106390
-0.045178 -0.007756 -0.092866
-0.067338 -0.078903 -0.025681
-0.062158 -0.080459 -0.038565
-0.058613 -0.084040 -0.030776
0.001876 0.011302 -0.173958
0.003599 0.020302 -0.170039
0.006574 0.019558 -0.175615
-0.038400 -0.097350 0.027629
-0.036587 -0.094435 0.041562
-0.045596 -0.091426 0.036117
-0.052530 -0.067578 -0.115921
-0.062407 -0.064342 -0.108158
-0.050997 -0.062301 -0.124556
-0.014279 -0.084735 0.068903
-0.024312 -0.086103 0.067069
-0.031994 -0.091043 0.054295
-0.047303 -0.092978 0.022210
0.080194 0.048206 0.030023
0.080011 0.042574 0.041902
0.080977 0.037705 0.043303
-0.036236 0.034743 -0.054174
-0.029787 0.034734 -0.047257
-0.023534 0.039167 -0.057392
-0.083434 -0.029233 0.024670
-0.080178 -0.028782 0.029428
0.045822 -0.017187 0.076418
0.037176 -0.018506 0.074030
0.038812 -0.022577 0.078603
-0.116919 -0.017700 0.018373
0.078725 0.024057 0.058807
0.077012 0.018354 0.057214
0.079578 0.027259 0.052364
-0.040645 -0.089113 0.050772
-0.048914 -0.085113 0.046988
-0.080601 -0.072386 -0.031501
-0.075072 -0.074470 -0.040564
-0.075436 -0.075334 -0.025728
-0.027248 -0.016316 -0.150411
-0.035500 -0.025652 -0.146322
-0.038758 -0.019035 -0.132535
-0.084975 0.014261 -0.028728
-0.076701 0.018316 -0.034119
-0.087073 0.014894 -0.032585
-0.078675 -0.035218 0.049239
-0.076014 -0.034348 0.051671
-0.035001 0.008262 -0.103376
-0.034019 0.013246 -0.102496
-0.026836 0.016684 -0.113451
-0.105103 -0.003386 -0.002689
-0.102684 0.000319 -0.008034
-0.110806 -0.005134 -0.000262
-0.061847 -0.082665 0.010548
-0.057601 -0.085142 0.018262
-0.049440 -0.028143 -0.125023
-0.091760 -0.061991 -0.036468
-0.087532 -0.066784 -0.039231
-0.090421 -0.063821 -0.025963
-0.063033 -0.069239 -0.099550
-0.029378 0.000866 -0.122134
-0.037239 -0.006233 -0.112174
-0.088991 -0.006674 -0.031365
-0.034379 -0.085476 0.063456
-0.082397 -0.070868 -0.040336
0.055450 -0.025157 0.078334
0.057376 -0.022439 0.071012
0.060038 -0.018148 0.077521
-0.062464 -0.021519 0.055870
-0.058769 -0.057980 0.058863
-0.053042 -0.057534 0.064588
-0.082591 -0.070933 -0.020102
-0.082706 -0.069247 -0.051793
0.034259 0.052905 -0.026866
0.029411 0.046101 -0.013470
0.042701 0.052657 -0.012529
0.035225 0.080634 -0.136296
0.036281 0.079346 -0.122597
0.040567 0.085890 -0.124042
0.076356 0.055253 0.020661
0.078098 0.048196 0.034642
-0.026299 -0.078753 0.075345
-0.087327 -0.061788 -0.062454