# vtk DataFile Version 3.0
3D Unstructured Surface
ASCII
DATASET UNSTRUCTURED_GRID
POINTS 1756 float
19.774958 32.193419 -27.294741
19.934033 32.101102 -27.192586
19.932180 32.059609 -27.402022
19.771537 32.167532 -27.544834
19.592559 32.365225 -28.066584
19.559559 32.457542 -28.292433
19.423025 32.539249 -28.095552
19.669921 32.413133 -28.454418
19.709849 32.305656 -28.271458
19.727870 32.630977 -28.908580
19.544840 32.807703 -28.926976
19.539997 32.677714 -28.724392
19.699443 32.799391 -29.080137
19.664722 32.976025 -29.227036
19.553960 32.918661 -29.076176
19.620004 33.157030 -29.346762
19.814912 33.037308 -29.364985
19.839257 33.224309 -29.487656
20.045701 33.341713 -29.585860
19.830136 33.400582 -29.565106
19.913518 33.585196 -29.639371
20.175098 33.594961 -29.654415
20.343988 33.395132 -29.622716
20.449708 33.621747 -29.642755
20.288267 33.808019 -29.666874
20.530662 33.859189 -29.631655
20.748720 33.953588 -29.566999
20.547011 34.066158 -29.610861
20.965464 34.138444 -29.454071
20.719162 34.149698 -29.549236
21.290286 34.414094 -29.175990
21.182416 34.607564 -29.169676
21.043440 34.414783 -29.335071
21.589785 34.686103 -28.699571
21.437324 34.732079 -28.870471
21.554716 34.534602 -28.858905
21.957879 34.424051 -27.987834
21.983693 34.383657 -27.713624
21.890867 34.622499 -27.790551
22.056838 33.991133 -27.338494
21.996290 34.064076 -27.129490
22.002437 34.211515 -27.332656
21.947332 34.288716 -27.112559
21.929369 34.135931 -26.891537
21.888445 34.351886 -26.868259
21.323730 32.975004 -25.951911
21.084236 32.879994 -25.847365
21.158956 33.090585 -25.785763
20.684616 32.315762 -26.218408
20.594777 32.192818 -26.392091
20.467777 32.311605 -26.241927
20.398387 32.221527 -26.394680
20.450589 32.118776 -26.563444
20.197264 32.207772 -26.520226
20.322202 32.071894 -26.731462
19.855838 32.091567 -27.824324
19.660341 32.267906 -27.842703
21.846448 34.665652 -28.040187
21.899206 34.466893 -28.227666
20.956900 32.669155 -25.926701
20.882227 32.488261 -26.054240
20.744289 32.557856 -25.970413
20.755509 32.426637 -26.096802
19.773145 32.196450 -28.076375
19.724500 32.485924 -28.691651
20.050654 33.104148 -29.491448
19.722924 37.333213 -28.902388
19.975741 37.231374 -28.836381
19.859982 37.416098 -28.750925
20.750924 36.784816 -28.326790
20.655697 36.980625 -28.266807
20.625266 36.853964 -28.474416
20.578335 36.699621 -28.691654
20.749430 36.624157 -28.503748
21.681843 34.330036 -28.831063
21.710124 34.495508 -28.665148
21.212486 32.728906 -26.000022
21.084158 32.487979 -26.102857
20.619474 33.432251 -29.615484
20.759357 33.704315 -29.591927
20.969544 33.891707 -29.502440
21.714091 34.630422 -28.532310
21.819453 34.488497 -28.449455
22.076989 34.149161 -27.934379
19.391468 33.318064 -29.316510
19.456287 33.095585 -29.170342
20.227747 31.962834 -27.086273
20.082766 31.995262 -27.238804
20.051714 32.070536 -27.042457
19.856547 32.270204 -28.512098
19.900611 32.134374 -28.271893
20.012595 32.106540 -28.435789
20.377762 33.088308 -25.485232
20.589998 33.144126 -25.489938
20.483336 32.947959 -25.606434
21.402950 34.183366 -29.185942
21.497465 34.355255 -29.026471
21.914267 34.343847 -28.382796
21.998161 34.267776 -28.202933
22.068289 34.111327 -27.589148
21.982705 34.346402 -27.484226
22.043510 33.839609 -27.165337
21.940541 33.456940 -26.751678
21.904271 33.730039 -26.683914
22.009603 33.646722 -26.974203
20.908338 32.347679 -26.193388
19.904494 32.476498 -28.894257
19.880488 32.647524 -29.070491
19.860141 32.842375 -29.240962
20.281786 33.163011 -29.559331
21.613307 34.154729 -29.011299
22.157208 33.905746 -27.785750
21.471093 32.796742 -26.145493
20.836213 32.196657 -26.369442
21.078481 32.295396 -26.271901
19.967371 32.005822 -27.608070
19.940938 32.333231 -28.739337
20.027001 32.903547 -29.368066
20.510247 33.213007 -29.588677
21.202553 33.833392 -29.417909
21.134899 34.017691 -29.405278
21.786399 34.120914 -28.831297
21.831190 34.295809 -28.627358
22.133016 33.838724 -27.528063
20.541613 31.988551 -26.758837
20.955093 31.881878 -26.751698
20.769339 31.921751 -26.759065
20.901744 32.018296 -26.594224
19.955608 32.031810 -28.049845
20.069773 32.702299 -29.241443
20.259303 32.761107 -29.363517
20.252541 32.951888 -29.467828
20.782411 33.220779 -29.581565
20.917862 33.442788 -29.566712
21.418103 33.800024 -29.306901
21.307483 34.006273 -29.313192
22.103630 33.768503 -27.342617
21.671122 33.249935 -26.235706
21.713864 33.516479 -26.261937
21.824692 33.405183 -26.481628
20.688379 32.067566 -26.569341
20.053179 31.932279 -27.847509
21.067789 33.667960 -29.504234
22.097313 34.045072 -28.208555
22.086419 33.631175 -27.207031
22.048772 33.416450 -27.028483
21.249603 32.385846 -26.242645
20.599793 31.845311 -26.980451
20.374576 31.956777 -26.937184
20.078425 31.989265 -28.266957
21.308887 33.629478 -29.407195
21.997213 34.151370 -28.415879
21.626728 33.010380 -26.231256
21.503383 33.186271 -26.040436
20.143448 31.890595 -28.079142
20.057626 32.175416 -28.632160
20.142593 32.299964 -28.891715
20.426055 33.029254 -29.534496
21.179905 33.432388 -29.491672
22.163328 33.919528 -28.014533
22.206486 33.681878 -27.706253
22.158514 33.604572 -27.435820
21.564031 32.596388 -26.320063
21.338263 32.548716 -26.176450
21.423961 32.386259 -26.337979
20.268489 31.780077 -27.883071
20.074829 32.504186 -29.065594
20.465488 32.855990 -29.471432
21.707785 33.933042 -29.024810
22.221143 33.350684 -27.513673
22.143024 33.394584 -27.287246
20.629668 33.022844 -29.552050
21.027126 33.218954 -29.544691
21.732646 32.969259 -26.382422
21.678606 32.807663 -26.354036
21.554724 31.476549 -28.798785
21.410598 31.616266 -28.883416
21.355678 31.481217 -28.684744
20.891375 31.777234 -26.920990
20.281623 31.858833 -27.306308
20.418254 31.859681 -27.113244
20.531350 31.734042 -27.283883
20.338357 31.773807 -28.151033
20.881599 32.977979 -29.544156
21.526556 33.589415 -29.290633
21.632172 33.756446 -29.163940
21.964225 32.958400 -26.796247
21.895022 33.155532 -26.642149
22.005197 33.196798 -26.887044
21.824547 32.906760 -26.541330
21.289377 32.241954 -26.389689
21.086122 32.114138 -26.473668
20.215709 31.892852 -28.278074
20.310161 32.064469 -28.726070
21.293278 33.242166 -29.468590
21.408742 33.414468 -29.396203
21.724906 33.547258 -29.155329
21.816114 33.732412 -29.005169
21.883435 33.892115 -28.848196
22.234846 33.485428 -27.644794
22.268057 33.514517 -27.854545
21.898687 32.695582 -26.718230
18.083333 35.003889 -24.912920
18.039976 35.176307 -24.828400
18.239871 35.146399 -24.723144
21.633796 32.408032 -26.494789
21.484532 32.209357 -26.511088
21.115726 31.939020 -26.665502
20.207210 31.992785 -28.495223
20.748943 32.759473 -29.476441
20.508151 32.609207 -29.350823
17.838094 34.212111 -26.475472
17.919378 34.069862 -26.699061
17.705008 34.265089 -26.718072
22.227815 33.714146 -27.941977
22.072084 32.989841 -27.029884
22.103470 33.209921 -27.130067
21.758368 32.646369 -26.520569
20.577023 31.632968 -27.532163
20.407914 31.735740 -27.488852
20.204668 31.836123 -27.617231
20.412620 31.695473 -27.696230
20.458084 31.667362 -27.945619
20.538666 31.677372 -28.225611
20.418625 32.204318 -28.979260
20.272808 32.387288 -29.077127
20.277331 32.542568 -29.215761
21.166537 32.995940 -29.506847
21.605372 33.368030 -29.290299
22.196227 33.173254 -27.372432
21.541773 32.039580 -26.679615
21.365421 31.841881 -26.791775
21.312767 32.052189 -26.572466
20.391600 31.836597 -28.419528
21.042866 32.790531 -29.495671
22.088192 33.536904 -28.751276
22.036084 33.780267 -28.692779
21.960706 33.687366 -28.859546
22.209019 33.742669 -28.225063
22.282280 33.518807 -28.087520
22.036135 32.730292 -26.968721
21.815302 32.438571 -26.683525
21.676941 32.220670 -26.647243
21.098690 31.781369 -26.847078
21.049494 31.633788 -27.070898
20.778470 31.678177 -27.151309
20.624721 31.576193 -27.761575
22.321865 33.334765 -28.173083
22.319176 33.324253 -27.984684
21.972154 32.461378 -26.919578
21.849552 32.218748 -26.842965
21.474808 35.820430 -26.844056
21.402845 35.943864 -26.633514
21.404025 36.015432 -26.812351
20.746800 31.590140 -27.387965
20.535923 31.878649 -28.647942
20.358326 31.935544 -28.569967
22.174969 33.642491 -28.499607
22.269408 33.482292 -28.323972
22.277078 33.139299 -27.619462
22.154721 32.804634 -27.222436
20.637541 32.124416 -29.020499
20.573816 32.238562 -29.097459
20.489751 32.381820 -29.182374
20.731097 32.481623 -29.335161
21.114649 32.396136 -29.356644
21.150088 32.597295 -29.435183
20.959536 32.566659 -29.417715
21.480933 33.245963 -29.386003
21.829820 33.286643 -29.144681
21.948764 33.481688 -28.963064
22.223498 33.383547 -28.576119
22.280122 33.321479 -27.725135
22.235606 32.951394 -27.440078
22.157619 33.027615 -27.239144
21.634087 31.885888 -26.870393
18.816130 34.373517 -24.860003
18.605194 34.534389 -24.880685
18.794064 34.610841 -24.721383
20.688881 31.556449 -28.026915
21.356213 32.762947 -29.439079
21.430020 33.053428 -29.423858
21.342497 36.143422 -26.688742
21.350600 36.183499 -26.906085
21.277263 31.646368 -27.002558
20.977275 31.526902 -27.314419
20.921904 31.471029 -27.565393
20.753044 31.532256 -27.609527
21.649114 33.138895 -29.307236
22.109884 33.292609 -28.839170
22.318242 33.234743 -28.377850
21.712989 32.062955 -26.787514
20.637859 31.713996 -28.454713
20.520474 32.037432 -28.855141
20.735280 31.925448 -28.858066
22.096410 32.584586 -27.121648
20.836857 31.478226 -27.824187
20.720161 31.594105 -28.260133
21.221554 31.503513 -27.236900
20.912043 31.571282 -28.443370
20.915308 31.472121 -28.132816
22.095462 32.386548 -27.180532
21.987231 32.197071 -27.059800
21.540888 31.710113 -26.981344
21.688602 31.606658 -27.183882
21.450327 31.539681 -27.162986
21.601292 32.879286 -29.366174
21.842361 33.007226 -29.211525
22.005361 33.103547 -29.043398
22.358725 33.123168 -28.138900
22.306690 32.893943 -27.657705
22.338800 33.067105 -27.856942
22.251608 32.736820 -27.474828
21.180564 34.208829 -29.327059
21.140341 31.418259 -27.497771
21.076811 31.388346 -27.769414
20.911697 32.373914 -29.313973
21.289277 32.257189 -29.311952
21.346276 32.486194 -29.396853
[...]
POINT_DATA 1756
VECTORS Displacement float
-0.151958 -0.016019 -0.107759
-0.174033 -0.020702 -0.112314
-0.173480 -0.025609 -0.096378
-0.148537 -0.022432 -0.087466
-0.099259 -0.028225 -0.041516
-0.079459 -0.031342 -0.018867
-0.066225 -0.022749 -0.034448
-0.086221 -0.037333 -0.005182
-0.106649 -0.035956 -0.024442
-0.052370 -0.042177 0.044880
-0.021140 -0.036803 0.053476
-0.040297 -0.035814 0.029092
-0.029043 -0.041191 0.067537
-0.006622 -0.039925 0.088936
-0.006860 -0.037161 0.072276
0.014596 -0.038930 0.108662
-0.011212 -0.043408 0.105085
0.001543 -0.044809 0.125056
-0.012201 -0.051913 0.139760
0.013364 -0.046782 0.140306
0.012682 -0.053296 0.155171
-0.017698 -0.061861 0.156215
-0.043188 -0.061932 0.145016
-0.050408 -0.071647 0.154155
-0.027467 -0.072919 0.164174
-0.057462 -0.082889 0.159255
-0.084020 -0.093688 0.152299
-0.058311 -0.092158 0.161961
-0.109664 -0.107744 0.141571
-0.079762 -0.101098 0.154536
-0.147086 -0.128594 0.116590
-0.135816 -0.134864 0.118676
-0.119240 -0.122183 0.132971
-0.181285 -0.150803 0.080971
-0.164424 -0.147779 0.094471
-0.176216 -0.142002 0.091305
-0.226879 -0.159951 0.029034
-0.236693 -0.164557 0.009524
-0.228267 -0.170799 0.016151
-0.247938 -0.157833 -0.019706
-0.251690 -0.162376 -0.037610
-0.248037 -0.165215 -0.020344
-0.250332 -0.169716 -0.038741
-0.252869 -0.165331 -0.058763
-0.250145 -0.172086 -0.059941
-0.209830 -0.094304 -0.157289
-0.197536 -0.076594 -0.179935
-0.201056 -0.086885 -0.189237
-0.197816 -0.046862 -0.154192
-0.202477 -0.043118 -0.143309
-0.190877 -0.033405 -0.166273
-0.194487 -0.030927 -0.155820
-0.203389 -0.036776 -0.137856
-0.186564 -0.020372 -0.156574
-0.202002 -0.031894 -0.131738
-0.153538 -0.032167 -0.064876
-0.121641 -0.025606 -0.062597
-0.217648 -0.166552 0.034187
-0.216406 -0.155693 0.045466
-0.194300 -0.064655 -0.172699
-0.196327 -0.058561 -0.159760
-0.188689 -0.049956 -0.179687
-0.194609 -0.050637 -0.162898
-0.129045 -0.034550 -0.043325
-0.073900 -0.041324 0.019351
-0.026154 -0.049348 0.121048
-0.019624 -0.241813 0.042388
-0.037041 -0.228574 0.032181
-0.031082 -0.241398 0.022325
-0.091224 -0.205116 0.006890
-0.084097 -0.210225 -0.005293
-0.081166 -0.205864 0.013116
-0.076835 -0.200521 0.032254
-0.090530 -0.200357 0.024048
-0.187543 -0.137036 0.085963
-0.192624 -0.145908 0.076048
-0.203886 -0.081406 -0.150778
-0.201758 -0.070379 -0.141543
-0.073674 -0.071651 0.143784
-0.086557 -0.084515 0.147827
-0.110344 -0.098007 0.141140
-0.195091 -0.153222 0.068010
-0.205353 -0.150997 0.060655
-0.231289 -0.151761 0.024279
0.046632 -0.033464 0.116310
0.019613 -0.034485 0.090342
-0.203647 -0.033134 -0.109927
-0.191566 -0.028862 -0.104496
-0.186414 -0.023036 -0.120143
-0.110347 -0.043904 -0.002802
-0.135611 -0.042074 -0.026907
-0.137895 -0.047940 -0.011911
-0.138962 -0.027808 -0.277568
-0.155898 -0.045326 -0.264262
-0.155136 -0.034059 -0.251066
-0.158150 -0.122066 0.112942
-0.168965 -0.132055 0.102071
-0.212667 -0.148147 0.054496
-0.221261 -0.149776 0.042133
-0.242089 -0.157727 -0.000052
-0.243405 -0.167502 -0.007974
-0.249810 -0.154709 -0.033963
-0.245541 -0.141640 -0.069022
-0.250571 -0.150939 -0.078286
-0.249103 -0.149122 -0.049997
-0.201638 -0.059979 -0.141812
-0.079394 -0.047498 0.039657
-0.056388 -0.046324 0.061991
-0.033241 -0.044875 0.085362
-0.045386 -0.056111 0.130731
-0.178907 -0.127429 0.096999
-0.234008 -0.146646 0.014350
-0.213293 -0.097242 -0.124607
-0.206613 -0.056957 -0.129458
-0.205281 -0.069096 -0.122799
-0.175271 -0.031622 -0.080630
-0.100638 -0.048331 0.020937
-0.039301 -0.048547 0.101366
-0.067147 -0.063607 0.135177
-0.135753 -0.102892 0.128309
-0.128899 -0.107691 0.132178
-0.193999 -0.131514 0.082197
-0.201790 -0.141109 0.070458
-0.241216 -0.149624 -0.004037
-0.213713 -0.045151 -0.116763
-0.218293 -0.066178 -0.090302
-0.218939 -0.057451 -0.102135
-0.214144 -0.062396 -0.105776
-0.157208 -0.040010 -0.046655
-0.060773 -0.050599 0.082343
-0.068503 -0.054807 0.098117
-0.054341 -0.054088 0.114428
-0.095111 -0.072279 0.133165
-0.106362 -0.081688 0.136412
-0.157103 -0.108424 0.115501
-0.147383 -0.112373 0.121492
-0.245130 -0.150303 -0.018483
-0.231322 -0.123235 -0.119994
-0.239064 -0.135379 -0.121163
-0.241492 -0.136083 -0.095172
-0.211379 -0.050866 -0.122059
-0.179079 -0.039479 -0.062191
-0.121389 -0.093160 0.134234
-0.221513 -0.142272 0.041055
-0.245519 -0.147275 -0.029069
-0.243172 -0.140850 -0.042717
-0.205303 -0.077846 -0.116655
-0.222193 -0.051211 -0.098149
-0.210976 -0.038477 -0.113416
-0.159025 -0.047565 -0.027943
-0.145787 -0.099678 0.121895
-0.214013 -0.141370 0.054479
-0.223428 -0.112080 -0.115844
-0.221783 -0.111871 -0.144964
-0.178548 -0.046495 -0.043658
-0.126026 -0.051416 0.008160
-0.109793 -0.055064 0.037215
-0.065855 -0.059054 0.123896
-0.132905 -0.089988 0.126472
-0.226628 -0.142228 0.029033
-0.232286 -0.140878 0.009553
-0.239214 -0.143372 -0.009980
-0.211231 -0.095788 -0.099737
-0.206763 -0.084516 -0.121550
-0.206461 -0.085559 -0.100021
-0.200489 -0.047377 -0.056829
-0.082329 -0.052186 0.058994
-0.078388 -0.059790 0.112632
-0.184285 -0.121842 0.093510
-0.229843 -0.133684 -0.002327
-0.237724 -0.138284 -0.020254
-0.085368 -0.064944 0.125250
-0.119126 -0.080154 0.127791
-0.225646 -0.115259 -0.097278
-0.219106 -0.107063 -0.097464
-0.177524 -0.085149 0.034885
-0.179498 -0.085166 0.041816
-0.190178 -0.082617 0.026244
-0.223475 -0.064734 -0.083710
-0.210423 -0.039533 -0.093292
-0.217354 -0.043481 -0.099556
-0.225550 -0.050942 -0.084317
-0.193457 -0.053707 -0.035767
-0.109499 -0.072179 0.122356
-0.165056 -0.105415 0.109633
-0.175672 -0.113646 0.101640
-0.228825 -0.122300 -0.056753
-0.235922 -0.128632 -0.074651
-0.237597 -0.132498 -0.052456
-0.225647 -0.116360 -0.079670
-0.206377 -0.078654 -0.100311
-0.209722 -0.070038 -0.103932
-0.173509 -0.051952 -0.026426
-0.144661 -0.060169 0.018270
-0.142878 -0.089266 0.119590
-0.153542 -0.096968 0.116003
-0.179606 -0.110158 0.097329
-0.188914 -0.118112 0.088369
-0.196735 -0.125415 0.079396
-0.229346 -0.135728 0.006194
-0.222957 -0.132617 0.019745
-0.217687 -0.110582 -0.059870
0.203067 0.013011 -0.455780
0.208524 -0.001707 -0.469000
0.190429 -0.005899 -0.487556
-0.207196 -0.093832 -0.079811
-0.204432 -0.085557 -0.081312
-0.213126 -0.072220 -0.086398
-0.155410 -0.054785 -0.006077
-0.105943 -0.067773 0.110941
-0.097251 -0.062307 0.094323
0.223406 0.063089 -0.192528
0.210922 0.062338 -0.158439
0.239292 0.059611 -0.147128
-0.225015 -0.137046 0.024677
-0.228284 -0.124741 -0.036916
-0.235170 -0.132921 -0.031333
-0.215168 -0.104669 -0.077931
-0.228123 -0.054868 -0.069137
-0.219614 -0.047540 -0.077948
-0.201868 -0.041023 -0.075869
-0.217420 -0.049973 -0.065670
-0.212784 -0.054562 -0.048481
-0.203666 -0.060872 -0.026189
-0.129425 -0.063818 0.047160
-0.104008 -0.058388 0.059327
-0.088531 -0.057068 0.077261
-0.133137 -0.081240 0.118547
-0.168572 -0.102030 0.105699
-0.228227 -0.129654 -0.011468
-0.201073 -0.085780 -0.065285
-0.206121 -0.080781 -0.064125
-0.206967 -0.078989 -0.082934
-0.179300 -0.059397 -0.012072
-0.126766 -0.076031 0.113171
-0.199292 -0.119004 0.069076
-0.203584 -0.125667 0.067679
-0.196806 -0.120466 0.077346
-0.216819 -0.132469 0.040963
-0.215580 -0.128407 0.033220
-0.217635 -0.114492 -0.038879
-0.207202 -0.099971 -0.060775
-0.201641 -0.091370 -0.064657
-0.217190 -0.072569 -0.074922
-0.223094 -0.071888 -0.065702
-0.229270 -0.061177 -0.078191
-0.226721 -0.058393 -0.054625
-0.207965 -0.121965 0.037783
-0.213276 -0.124753 0.027784
-0.206054 -0.104278 -0.040922
-0.198152 -0.095548 -0.046835
-0.181808 -0.205430 -0.063544
-0.174545 -0.205464 -0.080886
-0.170825 -0.206132 -0.068149
-0.232100 -0.060940 -0.068435
-0.171623 -0.066449 0.011442
-0.163726 -0.060344 0.002167
-0.207469 -0.125191 0.055507
-0.208208 -0.123592 0.045672
-0.219378 -0.125299 0.006362
-0.216821 -0.117634 -0.019564
-0.144041 -0.070416 0.052199
-0.131016 -0.067862 0.061259
-0.114351 -0.064220 0.071974
-0.119397 -0.069223 0.090961
-0.142849 -0.079036 0.092644
-0.138388 -0.078995 0.103883
-0.128336 -0.074259 0.101415
-0.157933 -0.095363 0.111803
-0.181120 -0.106343 0.092681
-0.191464 -0.114188 0.082064
-0.200298 -0.117847 0.058319
-0.221822 -0.129179 0.012335
-0.217706 -0.121394 -0.004722
-0.226019 -0.125615 -0.020356
-0.195587 -0.087188 -0.049107
0.115070 0.031183 -0.449597
0.143306 0.030011 -0.453015
0.124936 0.017059 -0.470717
-0.220681 -0.062949 -0.036085
-0.148113 -0.084947 0.107979
-0.153020 -0.090328 0.112058
-0.163697 -0.205722 -0.078958
-0.161200 -0.206299 -0.064115
-0.211763 -0.078968 -0.056042
-0.228975 -0.069802 -0.058881
-0.231304 -0.068229 -0.050807
-0.231844 -0.062156 -0.057273
-0.168214 -0.098295 0.103336
-0.192884 -0.112609 0.072170
-0.200142 -0.116743 0.047850
-0.196589 -0.090055 -0.052786
-0.194159 -0.066896 -0.005287
-0.151074 -0.067232 0.033141
-0.166380 -0.073348 0.034766
-0.208610 -0.109886 -0.025752
-0.229157 -0.066226 -0.042113
-0.210661 -0.066505 -0.018967
-0.217254 -0.077913 -0.048200
-0.205543 -0.073482 0.000070
-0.220408 -0.070521 -0.020984
-0.198562 -0.103848 -0.020968
-0.193331 -0.097771 -0.030000
-0.197588 -0.085013 -0.045456
-0.188202 -0.087758 -0.030618
-0.202427 -0.083481 -0.040214
-0.161892 -0.092586 0.103374
-0.175261 -0.100526 0.093025
-0.183761 -0.105947 0.082598
-0.202425 -0.117168 0.036100
-0.208790 -0.117343 0.010005
-0.209000 -0.119705 0.021242
-0.207508 -0.114220 -0.001172
-0.134264 -0.116629 0.127859
-0.223441 -0.075559 -0.041829
-0.225511 -0.073646 -0.033286
-0.134897 -0.074614 0.087473
-0.153377 -0.083389 0.086052
-0.149976 -0.083794 0.097953
-0.203291 -0.109171 -0.011631
-0.198114 -0.110667 0.012918
-0.194549 -0.107034 0.004497
-0.159431 -0.011204 -0.129684
0.131512 -0.003257 0.105745
0.118825 -0.012628 0.122074
0.142966 -0.009061 0.135760
0.032811 -0.312166 -0.168849
0.013123 -0.301001 -0.174170
0.029082 -0.306872 -0.196448
-0.183383 -0.093903 -0.022130
-0.186766 -0.098506 -0.014224
-0.225291 -0.071513 -0.028706
-0.172224 -0.084789 0.055112
-0.164328 -0.081650 0.060626
-0.175804 -0.079613 0.041116
-0.156996 -0.087387 0.090163
-0.168663 -0.096595 0.083010
-0.175895 -0.100684 0.081788
-0.168248 -0.095582 0.091632
-0.192557 -0.111454 0.047352
-0.191770 -0.110263 0.036919
-0.192013 -0.103521 -0.005522
-0.188095 -0.089084 -0.035137
-0.179841 -0.090950 -0.021354
-0.189588 -0.086869 -0.025056
-0.207527 -0.082116 -0.032465
-0.184136 -0.106172 0.069842
-0.176769 -0.102480 0.066018
-0.184403 -0.106820 0.057474
-0.197532 -0.112175 0.024421
-0.189855 -0.107409 0.021818
-0.209819 -0.081017 -0.025155
-0.162180 -0.092129 0.087673
-0.158173 -0.089189 0.099231
-0.185481 -0.082506 0.035422
-0.192004 -0.078460 0.022293
-0.200118 -0.078899 0.014595
-0.176894 -0.101928 0.073055
-0.170968 -0.099086 0.072556
-0.189933 -0.106338 0.014646
-0.183696 -0.102238 0.008852
-0.180821 -0.098709 -0.001954
-0.191161 -0.092251 -0.038463
-0.180434 -0.089382 -0.020465
-0.191802 -0.085632 -0.019957
-0.220029 -0.074963 -0.018340
-0.211772 -0.076363 -0.002763
-0.159854 -0.087515 0.079411
-0.161664 -0.084541 0.071618
-0.165560 -0.087476 0.066340
-0.161143 -0.090005 0.070919
-0.159864 -0.090380 0.081215
-0.186467 -0.073260 0.015695
-0.193392 -0.112320 0.058927
-0.175419 -0.102575 0.054835
-0.183385 -0.106346 0.047125
-0.183896 -0.105790 0.033351
-0.183091 -0.105958 0.040801
-0.175100 -0.102520 0.044543
-0.150097 -0.158050 -0.253388
-0.154803 -0.174426 -0.217686
-0.171830 -0.170677 -0.210941
-0.179614 -0.102639 0.022766
-0.211446 -0.079327 -0.016263
-0.164011 -0.095122 0.076904
-0.168693 -0.099254 0.062245
-0.177638 -0.089194 -0.014949
-0.212856 -0.133555 0.053750
-0.200898 -0.080179 0.010404
-0.173452 -0.091452 -0.012293
-0.175378 -0.093550 -0.011378
-0.163415 -0.096505 0.066838
0.031586 -0.040207 0.130436
-0.173124 -0.095588 -0.001759
-0.172052 -0.098007 0.011431
-0.167623 -0.093429 -0.001910
-0.207150 -0.079275 -0.003080
-0.163867 -0.089278 0.060457
-0.159660 -0.094152 0.069411
-0.192357 -0.083769 -0.011975
-0.192115 -0.081609 0.007184
-0.160837 -0.092813 0.078244
-0.159245 -0.092138 0.072044
-0.166430 -0.099041 0.052458
-0.172632 -0.100991 0.033809
-0.167391 -0.091198 -0.005313
-0.194300 -0.081842 -0.003629
-0.169218 -0.087602 0.048102
-0.170366 -0.087308 0.055287
-0.156961 -0.094765 0.059201
-0.161954 -0.096969 0.058134
-0.164685 -0.098534 0.042301
0.148281 0.052432 -0.397312
0.161385 0.042285 -0.423104
0.134489 0.043128 -0.426936
-0.158529 -0.091213 0.062064
-0.174290 -0.088156 -0.008270
-0.185808 -0.082861 0.020466
-0.157003 -0.095730 0.050044
-0.165859 -0.094939 0.006016
-0.159429 -0.093004 0.006851
-0.168559 -0.098663 0.024233
-0.160877 -0.095362 0.016700
0.006533 -0.230236 -0.338726
0.023478 -0.242496 -0.355911
-0.002955 -0.236447 -0.324524
-0.175201 -0.085447 -0.002138
-0.163995 -0.087443 0.039784
-0.159999 -0.089529 0.050783
-0.162998 -0.097629 0.033139
-0.162155 -0.090528 0.000006
-0.156976 -0.095372 0.027166
-0.152459 -0.091231 0.050830
-0.155438 -0.092950 0.060605
-0.151912 -0.092903 0.018426
-0.150937 -0.092906 0.050193
-0.161707 -0.088564 0.001903
-0.164723 -0.085993 0.004277
-0.177279 -0.083198 0.005184
-0.176438 -0.082880 0.014217
-0.146836 -0.092127 0.028339
-0.153506 -0.090963 0.009335
-0.171005 -0.084721 0.026038
-0.153613 -0.088051 0.009470
-0.161858 -0.084992 0.011541
-0.153655 -0.089101 0.041180
-0.147507 -0.092432 0.039200
-0.154656 -0.095159 0.038237
-0.147081 -0.090373 0.040535
-0.059713 -0.033756 0.004140
-0.186385 -0.136576 -0.238992
-0.200411 -0.137471 -0.218737
-0.183097 -0.122208 -0.252972
-0.145835 -0.090092 0.018977
-0.044827 -0.026094 -0.008445
-0.219475 -0.113461 -0.169135
-0.230328 -0.125222 -0.143486
-0.142950 -0.089540 0.028493
-0.249249 -0.161829 -0.099319
-0.243265 -0.152358 -0.128309
-0.242899 -0.162505 -0.120263
-0.161930 -0.084718 0.019225
-0.148566 -0.087126 0.020102
-0.156710 -0.086925 0.029919
-0.063527 -0.113104 0.155857
-0.060086 -0.102060 0.161134
-0.086330 -0.111064 0.150240
-0.147221 -0.088050 0.030574
-0.212035 -0.101226 -0.171281
-0.205116 -0.132779 0.068018
-0.019321 0.030306 -0.355889
0.002285 0.031729 -0.377845
-0.033259 0.014646 -0.373060
-0.179373 -0.156200 -0.226287
-0.170788 -0.136778 -0.259070
-0.153351 -0.140960 -0.274297
-0.046299 -0.206338 0.051087
-0.054849 -0.197149 0.057033
-0.062266 -0.202906 0.040076
0.181113 -0.135831 0.165548
0.177574 -0.157472 0.165829
0.205919 -0.143209 0.178175
-0.245796 -0.172920 -0.023844
-0.213059 -0.184644 0.010278
-0.209486 -0.192307 -0.007241
-0.197415 -0.189539 0.013549
-0.016221 -0.273000 -0.006590
-0.013706 -0.285814 -0.040857
-0.001324 -0.290093 -0.011378
-0.212592 -0.138348 -0.200384
-0.226807 -0.149628 -0.168430
-0.220137 -0.135854 -0.188815
-0.231172 -0.122248 -0.095916
-0.020041 0.038026 -0.191794
0.008212 0.039369 -0.170229
0.025718 0.048219 -0.196312
-0.039679 -0.175057 -0.299269
-0.069355 -0.177441 -0.269592
-0.046002 -0.163523 -0.312128
0.000880 -0.283585 0.012511
0.019099 -0.288139 0.038199
-0.006113 -0.269596 0.025871
-0.092920 -0.173270 0.090530
-0.101980 -0.166745 0.098965
-0.110835 -0.174162 0.086253
0.150538 0.053831 -0.105660
0.177556 0.052328 -0.079246
0.175758 0.058442 -0.120396
-0.063747 -0.191608 0.061340
-0.067566 -0.197090 0.047608
0.196630 -0.074334 0.182472
0.188841 -0.059410 0.188184
0.175226 -0.076151 0.179069
-0.045420 -0.251317 -0.145682
-0.044031 -0.253769 -0.125180
-0.056106 -0.240023 -0.120663
0.128488 0.000437 -0.487882
0.149849 -0.008766 -0.498612
0.129879 -0.016325 -0.499827
0.056697 -0.119829 -0.441027
0.052336 -0.139096 -0.420814
0.019311 -0.134396 -0.397881
-0.062709 0.033548 -0.259791
-0.021221 0.044983 -0.277840
-0.042368 0.035896 -0.300460
-0.184486 -0.184704 0.034407
-0.200698 -0.179564 0.032029
-0.156673 -0.076810 0.056982
-0.150681 -0.079520 0.076892
0.083423 -0.064487 0.184854
0.046999 -0.080269 0.182082
0.067601 -0.082831 0.180843
-0.148670 -0.162067 0.089689
-0.167931 -0.158258 0.082886
-0.160977 -0.168997 0.074703
0.264731 0.056416 -0.126084
0.283169 0.055127 -0.122018
0.270455 0.057908 -0.159334
0.194221 0.028352 -0.436848
0.169011 0.029548 -0.448249
0.182693 0.038555 -0.421926
-0.122253 -0.150367 -0.287417
-0.138275 -0.165414 -0.249101
-0.237794 -0.174259 -0.004960
-0.229212 -0.189364 -0.035264
-0.216822 -0.193815 -0.026163
-0.224258 -0.187145 -0.012087
-0.206259 -0.170733 0.040253
-0.215777 -0.175613 0.024189
-0.059582 -0.152899 -0.321977
-0.022934 -0.143594 -0.358059
-0.219078 -0.195484 -0.065070
-0.220120 -0.194684 -0.044556
-0.229323 -0.190540 -0.057142
0.064683 -0.258209 0.121425
0.077130 -0.272210 0.123517
0.092377 -0.259097 0.142454
0.204365 -0.145234 -0.536522
0.198659 -0.165368 -0.537316
0.175456 -0.149364 -0.527919
-0.049325 -0.248300 -0.081820
-0.052443 -0.243936 -0.101408
-0.044247 -0.254322 -0.103727
-0.013691 -0.284404 -0.166149
-0.015887 -0.280934 -0.186486
0.002148 -0.292876 -0.189660
-0.167136 -0.184387 0.045265
-0.171999 -0.191184 0.025947
-0.232184 -0.144514 -0.161066
0.169018 -0.001502 -0.491245
0.181376 0.013109 -0.470048
-0.154200 -0.204536 -0.092420
-0.153142 -0.202842 -0.109205
-0.143235 -0.203187 -0.108249
0.189413 -0.034664 -0.509661
0.207558 -0.022951 -0.489333
0.134710 -0.331363 -0.197962
0.142611 -0.330619 -0.167015
0.110797 -0.332280 -0.165501
-0.037325 -0.144348 0.130246
-0.043337 -0.135289 0.140266
-0.067665 -0.148272 0.125005
-0.174233 -0.203912 -0.028397
-0.167154 -0.201475 -0.009895
-0.179648 -0.199962 -0.010009
-0.022242 -0.281058 -0.102979
-0.020273 -0.280567 -0.139414
-0.006190 -0.292193 -0.132301
0.129718 -0.314739 -0.013685
0.139998 -0.319799 -0.050460
0.159580 -0.310585 -0.019858
0.102272 -0.320850 -0.030819
0.110030 -0.325879 -0.067385
0.151807 -0.328188 -0.137533
0.122604 -0.329080 -0.107418
0.123548 -0.331640 -0.139970
-0.163488 -0.061141 -0.266108
-0.145593 -0.057312 -0.298197
-0.170579 -0.075516 -0.264666
0.131105 -0.035192 0.180658
0.153978 -0.033434 0.187639
0.146825 -0.023774 0.173195
0.050142 -0.316270 -0.199499
0.053890 -0.312363 -0.226579
0.105208 -0.314892 0.010149
0.080232 -0.328346 -0.160372
0.086443 -0.329457 -0.130756
0.061496 -0.097006 -0.460843
0.033852 -0.112228 -0.430113
0.023862 -0.291663 -0.247858
0.050366 -0.295116 -0.278895
0.055339 -0.302917 -0.259687
0.210464 -0.122721 -0.531133
0.203407 -0.090655 -0.524446
0.216834 -0.101349 -0.521005
0.081818 -0.326847 -0.086784
0.073846 -0.322962 -0.049911
0.045934 -0.319899 -0.072972
0.137235 -0.277341 -0.451603
0.101981 -0.269989 -0.427079
0.142901 -0.269733 -0.468217
0.114473 -0.309210 0.048777
0.085707 -0.313364 0.030561
0.075688 -0.318516 -0.012502
0.050967 -0.320841 -0.108352
0.354801 -0.030491 0.116931
0.349644 -0.036242 0.138586
0.354350 -0.055899 0.143859
0.107852 0.065704 -0.242386
0.126396 0.064442 -0.202979
0.138343 0.067332 -0.233145
-0.252457 -0.159875 -0.079215
-0.252768 -0.157567 -0.057445
0.199502 -0.182133 0.183933
0.174579 -0.182329 0.170777
0.183682 -0.197788 0.181382
-0.197916 -0.028135 -0.124950
0.342133 -0.083879 0.172802
0.342762 -0.102312 0.168967
0.349583 -0.080991 0.161322
0.049552 -0.317701 -0.031363
0.024521 -0.312167 -0.049841
-0.003192 -0.277574 -0.257910
0.017404 -0.282335 -0.279796
0.004516 -0.284406 -0.248015
0.161459 -0.185114 -0.510975
0.154720 -0.206400 -0.501718
0.127460 -0.184298 -0.476934
-0.026534 0.040710 -0.216286
-0.000967 0.047273 -0.226118
-0.036336 0.040764 -0.239627
-0.193127 -0.196886 -0.006840
-0.183363 -0.194631 0.008891
0.054131 -0.054445 -0.471028
0.056863 -0.035716 -0.472711
0.083882 -0.033066 -0.486381
-0.109267 0.005220 -0.140248
-0.093178 0.013873 -0.156692
-0.132033 0.002256 -0.150006
0.009418 -0.300740 -0.154173
0.016549 -0.306262 -0.129706
0.111739 -0.204375 -0.456532
-0.031832 -0.251004 -0.252811
-0.015878 -0.263697 -0.266115
-0.034235 -0.254840 -0.233754
0.097437 -0.277949 -0.411050
0.097801 -0.104047 -0.484742
0.082923 -0.126241 -0.459429
-0.133138 -0.035346 -0.298564
0.056963 -0.314229 0.008664
-0.000796 -0.274176 -0.274655
0.266526 -0.208227 0.186134
0.283019 -0.200061 0.171290
0.276352 -0.190025 0.188661
-0.203038 -0.161068 0.053914
-0.031054 -0.257128 -0.012325
-0.021557 -0.260277 0.008571
-0.016967 -0.273728 -0.231820
0.006618 -0.270643 -0.296579
0.263133 0.049276 -0.056230
0.252505 0.045414 -0.026038