# vtk DataFile Version 3.0
3D Unstructured Surface
ASCII
DATASET UNSTRUCTURED_GRID
POINTS 1756 float
19.758490 32.135982 -27.254609
19.926161 32.052888 -27.159161
19.920167 32.002816 -27.364388
19.749993 32.100387 -27.500669
19.555760 32.278548 -28.013961
19.519246 32.366599 -28.237021
19.380626 32.449619 -28.037302
19.631922 32.322096 -28.402268
19.674989 32.217365 -28.222056
19.689814 32.542165 -28.852040
19.502106 32.718010 -28.858551
19.496904 32.585434 -28.661336
19.660959 32.713742 -29.016463
19.626441 32.894477 -29.155184
19.512197 32.832207 -29.003103
19.582343 33.079909 -29.266470
19.781475 32.962343 -29.297313
19.808082 33.155740 -29.415533
20.021316 33.283175 -29.522681
19.800288 33.336771 -29.488351
19.887263 33.528637 -29.564474
20.155820 33.547262 -29.594995
20.329117 33.348864 -29.577987
20.438926 33.585183 -29.601576
20.272984 33.769230 -29.613351
20.522714 33.831043 -29.594822
20.747538 33.936086 -29.545869
20.539380 34.042571 -29.576859
20.969928 34.132160 -29.448351
20.716263 34.134272 -29.528389
21.300921 34.421589 -29.188242
21.187617 34.613603 -29.183476
21.047387 34.414579 -29.338623
21.605727 34.704281 -28.723830
21.447789 34.746270 -28.893492
21.571434 34.550641 -28.878922
21.993339 34.454168 -28.013420
22.022219 34.416824 -27.740920
21.922245 34.653360 -27.822068
22.105588 34.029839 -27.367099
22.042835 34.104561 -27.162465
22.046074 34.249291 -27.362658
21.988719 34.327971 -27.147541
21.973346 34.178186 -26.930524
21.927446 34.392594 -26.909574
21.370538 33.018419 -26.023562
21.128976 32.920704 -25.921049
21.203969 33.135614 -25.865000
20.719754 32.332856 -26.259062
20.625220 32.200581 -26.419533
20.497569 32.322019 -26.272125
20.423449 32.223486 -26.412880
20.474251 32.115229 -26.575721
20.213507 32.198007 -26.522533
20.338631 32.056982 -26.729898
19.833166 32.017462 -27.780673
19.629206 32.188170 -27.793285
21.874279 34.693592 -28.070306
21.930599 34.493949 -28.252190
20.999852 32.703781 -25.992852
20.922846 32.516304 -26.110991
20.784045 32.586242 -26.028364
20.793710 32.450244 -26.147142
19.743170 32.113281 -28.029644
19.686871 32.395111 -28.639393
20.024957 33.039168 -29.434612
19.718431 37.362671 -28.953933
19.970992 37.264125 -28.895414
19.856279 37.450976 -28.807025
20.745574 36.824941 -28.406754
20.652060 37.023403 -28.346677
20.619504 36.892848 -28.551014
20.570044 36.733162 -28.762776
20.741920 36.659846 -28.579708
21.705771 34.348313 -28.850231
21.732760 34.515833 -28.686782
21.257700 32.766690 -26.067101
21.126544 32.518347 -26.162016
20.614091 33.397963 -29.589964
20.759100 33.682292 -29.572161
20.975909 33.881791 -29.495651
21.735345 34.651982 -28.557096
21.846648 34.512397 -28.472704
22.120805 34.181276 -27.957320
19.351070 33.240718 -29.222471
19.413976 33.012136 -29.086899
20.234170 31.929352 -27.067501
20.080352 31.950209 -27.209757
20.051739 32.032731 -27.017321
19.825033 32.181940 -28.468219
19.873642 32.050284 -28.230129
19.988609 32.022725 -28.399341
20.415319 33.124725 -25.568614
20.629562 33.185068 -25.578102
20.522052 32.983420 -25.683024
21.420175 34.192243 -29.198737
21.515041 34.368382 -29.042773
21.947139 34.369689 -28.405075
22.035970 34.296354 -28.225493
22.114393 34.147106 -27.614647
22.022922 34.381959 -27.513646
22.094755 33.880444 -27.197341
21.994647 33.501429 -26.796181
21.954392 33.775795 -26.729713
22.063054 33.689562 -27.011463
20.947476 32.370847 -26.243286
19.872235 32.389918 -28.848690
19.847208 32.563697 -29.019041
19.826833 32.763114 -29.182077
20.263934 33.108159 -29.515979
21.637618 34.169645 -29.028845
22.207940 33.940035 -27.808814
21.518444 32.836507 -26.209283
20.872056 32.211555 -26.408381
21.118661 32.319177 -26.323040
19.953331 31.942467 -27.569279
19.910854 32.246082 -28.698212
19.999449 32.831902 -29.315755
20.500404 33.168447 -29.560502
21.217244 33.831095 -29.423994
21.145728 34.015821 -29.407501
21.816992 34.140482 -28.851417
21.861002 34.318249 -28.648138
22.185352 33.875761 -27.553614
20.564855 31.979763 -26.767334
20.988163 31.885775 -26.780426
20.798673 31.920065 -26.779044
20.935863 32.026417 -26.626326
19.934175 31.954198 -28.009788
20.042984 32.626524 -29.197526
20.239270 32.694091 -29.329526
20.232849 32.890000 -29.428247
20.782536 33.187581 -29.573497
20.923510 33.421110 -29.562669
21.440500 33.804639 -29.322064
21.323991 34.010147 -29.322738
22.156887 33.807512 -27.371126
21.721357 33.296769 -26.298255
21.762641 33.565168 -26.324166
21.876784 33.451729 -26.535147
20.718479 32.070891 -26.592913
20.039450 31.863673 -27.811144
21.078674 33.657520 -29.505336
22.141605 34.074507 -28.230522
22.141379 33.671499 -27.238671
22.105185 33.457897 -27.065455
21.291899 32.414401 -26.299049
20.621570 31.829581 -26.984481
20.389261 31.934852 -26.930415
20.059786 31.910208 -28.232990
21.328767 33.627333 -29.421134
22.035553 34.177821 -28.437513
21.676557 33.053979 -26.293055
21.551591 33.233098 -26.110456
20.130723 31.818139 -28.047307
20.033307 32.090928 -28.597994
20.119359 32.218098 -28.860767
20.412647 32.976253 -29.505126
21.195626 33.421070 -29.503872
22.212655 33.951378 -28.036806
22.261814 33.716908 -27.730443
22.214727 33.642345 -27.463406
21.610092 32.631329 -26.378436
21.382735 32.582306 -26.237220
21.467047 32.415615 -26.394283
20.264790 31.717968 -27.856823
20.048193 32.423642 -29.027215
20.452960 32.799691 -29.449603
21.738374 33.948460 -29.045356
22.280094 33.386446 -27.542260
22.200973 33.433103 -27.318772
20.623521 32.977826 -29.538053
21.036715 33.195947 -29.553588
21.783589 33.011458 -26.439256
21.727674 32.847058 -26.411727
21.579085 31.451569 -28.832465
21.431288 31.582653 -28.917242
21.378418 31.447468 -28.714283
20.921437 31.773447 -26.941902
20.286734 31.818307 -27.285082
20.431808 31.832058 -27.103568
20.546877 31.704044 -27.276925
20.334097 31.706166 -28.129530
20.884766 32.942203 -29.549825
21.554537 33.594157 -29.313049
21.662349 33.767323 -29.185626
22.018543 32.997437 -26.842190
21.949280 33.198540 -26.691029
22.061464 33.238006 -26.929063
21.876282 32.946931 -26.593860
21.330385 32.266156 -26.441804
21.124233 32.130971 -26.517218
20.203549 31.817835 -28.250867
20.295676 31.986322 -28.706151
21.313417 33.230717 -29.491165
21.433234 33.411530 -29.418994
21.760112 33.557723 -29.182872
21.852751 33.748443 -29.030104
21.920478 33.912061 -28.871210
22.292872 33.520478 -27.670793
22.325526 33.547395 -27.879275
21.948845 32.730617 -26.767726
18.103650 34.962573 -24.955683
18.062804 35.134002 -24.868198
18.269936 35.114863 -24.788586
21.677956 32.438001 -26.549272
21.525845 32.233922 -26.563329
21.152042 31.949983 -26.703350
20.191374 31.913590 -28.468792
20.746459 32.712080 -29.478006
20.496735 32.547794 -29.337834
17.808249 34.135858 -26.448357
17.887073 33.994882 -26.667279
17.668491 34.181521 -26.673993
22.281973 33.746701 -27.965080
22.128359 33.027191 -27.070356
22.161322 33.248770 -27.166324
21.806416 32.681636 -26.574535
20.591460 31.595582 -27.524740
20.415928 31.693065 -27.471910
20.201692 31.780821 -27.588415
20.418219 31.645400 -27.678101
20.462462 31.610531 -27.929969
20.542487 31.615238 -28.215990
20.405632 32.130393 -28.965706
20.253468 32.311311 -29.052242
20.257748 32.470363 -29.188182
21.180953 32.972851 -29.529660
21.637226 33.371187 -29.319922
22.255186 33.209183 -27.404809
21.581375 32.059924 -26.728384
21.402827 31.854913 -26.833673
21.351888 32.070707 -26.619273
20.385529 31.764475 -28.402871
21.051537 32.756594 -29.516280
22.135693 33.558053 -28.780428
22.079766 33.803252 -28.717757
22.002666 33.706914 -28.886168
22.260574 33.772113 -28.248530
22.338640 33.549109 -28.112473
22.088587 32.764036 -27.012918
21.860761 32.468541 -26.734727
21.718742 32.245881 -26.698617
21.132944 31.786091 -26.878837
21.081199 31.630243 -27.095454
20.803451 31.662550 -27.160980
20.638516 31.532571 -27.755769
22.379346 33.363009 -28.200600
22.377783 33.354606 -28.011559
22.019298 32.490370 -26.966617
21.891850 32.243314 -26.891752
21.478106 35.857397 -26.926389
21.403216 35.982003 -26.720630
21.404685 36.054092 -26.897719
20.768634 31.564962 -27.392045
20.532352 31.808009 -28.641430
20.348273 31.859980 -28.552384
22.225082 33.668178 -28.525631
22.324227 33.509601 -28.350729
22.336508 33.172241 -27.649635
22.209889 32.837413 -27.261445
20.632549 32.057467 -29.021716
20.565707 32.170967 -29.094021
20.477991 32.313915 -29.171825
20.727581 32.426035 -29.340372
21.124451 32.355496 -29.386356
21.161954 32.563130 -29.464932
20.964303 32.523176 -29.437144
21.508296 33.241927 -29.415486
21.869600 33.295659 -29.179430
21.991904 33.497831 -28.993833
22.276263 33.406768 -28.606417
22.339365 33.354713 -27.752346
22.293521 32.984163 -27.474385
22.215400 33.063382 -27.275277
21.672326 31.902867 -26.916007
18.849640 34.369015 -24.968260
18.636142 34.520114 -24.977186
18.830692 34.605993 -24.836362
20.701939 31.506549 -28.024984
21.376785 32.742092 -29.475385
21.455036 33.042857 -29.456637
21.341517 36.183348 -26.776517
21.350312 36.223751 -26.991998
21.312425 31.651524 -27.036637
21.005867 31.513299 -27.331590
20.947421 31.446978 -27.577228
20.773083 31.499502 -27.611926
21.682495 33.138685 -29.343411
22.158742 33.310398 -28.873262
22.374445 33.259689 -28.408366
21.752917 32.084385 -26.836225
20.641992 31.650166 -28.452669
20.513023 31.965497 -28.848581
20.736122 31.860721 -28.864973
22.147149 32.614459 -27.164481
20.857613 31.441650 -27.830396
20.730966 31.538486 -28.261207
21.254886 31.500850 -27.264824
20.926704 31.519552 -28.455989
20.934991 31.429112 -28.143431
22.142413 32.412345 -27.223990
22.029807 32.220165 -27.105624
21.577756 31.722142 -27.022226
21.724708 31.617462 -27.222694
21.485935 31.545431 -27.197996
21.631536 32.871311 -29.407213
21.881595 33.010898 -29.252743
22.050308 33.114521 -29.082447
22.416844 33.150141 -28.169132
22.364362 32.923768 -27.691016
22.397810 33.096757 -27.887213
22.306707 32.766246 -27.511534
21.190730 34.210871 -29.332521
21.171206 31.405315 -27.519636
21.104738 31.364389 -27.787015
20.914487 32.323503 -29.332294
21.304328 32.221873 -29.349454
21.364428 32.458295 -29.435937
[...]
POINT_DATA 1756
VECTORS Displacement float
-0.135490 0.041418 -0.147891
-0.166161 0.027512 -0.145739
-0.161467 0.031184 -0.134012
-0.126993 0.044713 -0.131631
-0.062460 0.058452 -0.094139
-0.039146 0.059601 -0.074279
-0.023826 0.066881 -0.092698
-0.048222 0.053704 -0.057332
-0.071789 0.052335 -0.073844
-0.014314 0.046635 -0.011660
0.021594 0.052890 -0.014949
0.002796 0.056466 -0.033964
0.009441 0.044458 0.003863
0.031659 0.041623 0.017084
0.034903 0.049293 -0.000797
0.052257 0.038191 0.028370
0.022225 0.031557 0.037413
0.032718 0.023760 0.052933
0.012184 0.006625 0.076581
0.043212 0.017029 0.063551
0.038937 0.003263 0.080274
0.001580 -0.014162 0.096795
-0.028317 -0.015664 0.100287
-0.039626 -0.035083 0.112976
-0.012184 -0.034130 0.110651
-0.049514 -0.054743 0.122422
-0.082838 -0.076186 0.131169
-0.050680 -0.068571 0.127959
-0.114128 -0.101460 0.135851
-0.076863 -0.085672 0.133689
-0.157721 -0.136089 0.128842
-0.141017 -0.140903 0.132476
-0.123187 -0.121979 0.136523
-0.197227 -0.168981 0.105230
-0.174889 -0.161970 0.117492
-0.192934 -0.158041 0.111322
-0.262339 -0.190068 0.054620
-0.275219 -0.197724 0.036820
-0.259645 -0.201660 0.047668
-0.296688 -0.196539 0.008899
-0.298235 -0.202861 -0.004635
-0.291674 -0.202991 0.009658
-0.291719 -0.208971 -0.003759
-0.296846 -0.207586 -0.019776
-0.289146 -0.212794 -0.018626
-0.256638 -0.137719 -0.085638
-0.242276 -0.117304 -0.106251
-0.246069 -0.131914 -0.110000
-0.232954 -0.063956 -0.113538
-0.232920 -0.050881 -0.115867
-0.220669 -0.043819 -0.136075
-0.219549 -0.032886 -0.137620
-0.227051 -0.033229 -0.125579
-0.202807 -0.010607 -0.154267
-0.218431 -0.016982 -0.133302
-0.130866 0.041938 -0.108527
-0.090506 0.054130 -0.112015
-0.245479 -0.194492 0.064306
-0.247799 -0.182749 0.069990
-0.237252 -0.099281 -0.106548
-0.236946 -0.086604 -0.103009
-0.228445 -0.078342 -0.121736
-0.232810 -0.074244 -0.112558
-0.099070 0.048619 -0.090056
-0.036271 0.049489 -0.032907
-0.000457 0.015632 0.064212
-0.015131 -0.271271 0.093933
-0.032292 -0.261325 0.091214
-0.027379 -0.276276 0.078425
-0.085874 -0.245241 0.086854
-0.080460 -0.253003 0.074577
-0.075404 -0.244748 0.089714
-0.068544 -0.234062 0.103376
-0.083020 -0.236046 0.100008
-0.211471 -0.155313 0.105131
-0.215260 -0.166233 0.097682
-0.249100 -0.119190 -0.083699
-0.244144 -0.100747 -0.082384
-0.068291 -0.037363 0.118264
-0.086300 -0.062492 0.128061
-0.116709 -0.088091 0.134351
-0.216345 -0.174782 0.092796
-0.232548 -0.174897 0.083904
-0.275105 -0.183876 0.047220
0.087030 0.043882 0.022271
0.061924 0.048964 0.006899
-0.210070 0.000348 -0.128699
-0.189152 0.016191 -0.133543
-0.186439 0.014769 -0.145279
-0.078833 0.044360 -0.046681
-0.108642 0.042016 -0.068671
-0.113909 0.035875 -0.048359
-0.176519 -0.064225 -0.194186
-0.195462 -0.086268 -0.176098
-0.193852 -0.069520 -0.174476
-0.175375 -0.130943 0.125737
-0.186541 -0.145182 0.118373
-0.245539 -0.173989 0.076775
-0.259070 -0.178354 0.064693
-0.288193 -0.193506 0.025447
-0.283622 -0.203059 0.021446
-0.301055 -0.195544 -0.001959
-0.299647 -0.186129 -0.024519
-0.300692 -0.196695 -0.032487
-0.302554 -0.191962 -0.012737
-0.240776 -0.083147 -0.091914
-0.047135 0.039082 -0.005910
-0.023108 0.037503 0.010541
0.000067 0.034386 0.026477
-0.027534 -0.001259 0.087379
-0.203218 -0.142345 0.114545
-0.284740 -0.180935 0.037414
-0.260644 -0.137007 -0.060817
-0.242456 -0.071855 -0.090519
-0.245461 -0.092877 -0.071660
-0.161231 0.031733 -0.119421
-0.070554 0.038818 -0.020188
-0.011749 0.023098 0.049055
-0.057304 -0.019047 0.107002
-0.150444 -0.100595 0.134394
-0.139728 -0.105821 0.134401
-0.224592 -0.151082 0.102317
-0.231602 -0.163549 0.091238
-0.293552 -0.186661 0.021514
-0.236955 -0.036363 -0.108266
-0.251363 -0.070075 -0.061574
-0.248273 -0.055765 -0.082156
-0.248263 -0.070517 -0.073674
-0.135775 0.037602 -0.086712
-0.033984 0.025176 0.038426
-0.048470 0.012209 0.064126
-0.034649 0.007800 0.074847
-0.095236 -0.039081 0.125097
-0.112010 -0.060010 0.132369
-0.179500 -0.113039 0.130664
-0.163891 -0.116247 0.131038
-0.298387 -0.189312 0.010026
-0.281557 -0.170069 -0.057445
-0.287841 -0.184068 -0.058934
-0.293584 -0.182629 -0.041653
-0.241479 -0.054191 -0.098487
-0.165350 0.029127 -0.098556
-0.132274 -0.082720 0.135336
-0.265805 -0.171707 0.063022
-0.300479 -0.187599 0.002571
-0.299585 -0.182297 -0.005745
-0.247599 -0.106401 -0.060251
-0.243970 -0.035481 -0.094119
-0.225661 -0.016552 -0.120185
-0.140386 0.031492 -0.061910
-0.165667 -0.097533 0.135834
-0.252353 -0.167821 0.076113
-0.273257 -0.155679 -0.054045
-0.269991 -0.158698 -0.074944
-0.165823 0.025961 -0.075493
-0.101707 0.033072 -0.026006
-0.086559 0.026802 0.006267
-0.052447 -0.006053 0.094526
-0.148626 -0.078670 0.138672
-0.275955 -0.174078 0.051306
-0.287614 -0.175908 0.033743
-0.295427 -0.181145 0.017606
-0.257292 -0.130729 -0.041364
-0.251235 -0.118106 -0.060780
-0.249547 -0.114915 -0.043717
-0.196790 0.014732 -0.083077
-0.055693 0.028358 0.020615
-0.065860 -0.003491 0.090803
-0.214874 -0.137260 0.114056
-0.288794 -0.169446 0.026260
-0.295673 -0.176803 0.011272
-0.079221 -0.019926 0.111253
-0.128715 -0.057147 0.136688
-0.276589 -0.157458 -0.040444
-0.268174 -0.146458 -0.039773
-0.201885 -0.060169 0.068565
-0.200188 -0.051553 0.075642
-0.212918 -0.048868 0.055783
-0.253537 -0.060947 -0.062798
-0.215534 0.000993 -0.114518
-0.230908 -0.015858 -0.109232
-0.241077 -0.020944 -0.091275
-0.189197 0.013934 -0.057270
-0.112666 -0.036403 0.128025
-0.193037 -0.110157 0.132049
-0.205849 -0.124523 0.123326
-0.283143 -0.161337 -0.010810
-0.290180 -0.171640 -0.025771
-0.293864 -0.173706 -0.010437
-0.277382 -0.156531 -0.027140
-0.247385 -0.102856 -0.048196
-0.247833 -0.086871 -0.060382
-0.161349 0.023065 -0.053633
-0.130176 0.017978 -0.001649
-0.163017 -0.077817 0.142165
-0.178034 -0.094030 0.138794
-0.214812 -0.120623 0.124872
-0.225551 -0.134143 0.113304
-0.233778 -0.145361 0.102410
-0.287372 -0.170778 0.032193
-0.280426 -0.165495 0.044475
-0.267845 -0.145617 -0.010374
0.182750 0.054327 -0.413017
0.185696 0.040598 -0.429202
0.160364 0.025637 -0.422114
-0.251356 -0.123801 -0.025328
-0.245745 -0.110122 -0.029071
-0.249442 -0.083183 -0.048550
-0.139574 0.024410 -0.032508
-0.103459 -0.020380 0.112506
-0.085835 -0.000894 0.081334
0.253251 0.139342 -0.219643
0.243227 0.137318 -0.190221
0.275809 0.143179 -0.191207
-0.279173 -0.169601 0.047780
-0.284559 -0.162091 0.003556
-0.293022 -0.171770 0.004924
-0.263216 -0.139936 -0.023965
-0.242560 -0.017482 -0.076560
-0.227628 -0.004865 -0.094890
-0.198892 0.014279 -0.104685
-0.223019 0.000100 -0.083799
-0.217162 0.002269 -0.064131
-0.207487 0.001262 -0.035810
-0.116432 0.010107 0.033606
-0.084668 0.017589 0.034442
-0.068948 0.015137 0.049682
-0.147553 -0.058151 0.141360
-0.200426 -0.105187 0.135322
-0.287186 -0.165583 0.020909
-0.240675 -0.106124 -0.016516
-0.243527 -0.093813 -0.022227
-0.246088 -0.097507 -0.036127
-0.173229 0.012725 -0.028729
-0.135437 -0.042094 0.133780
-0.246793 -0.140153 0.098228
-0.247266 -0.148652 0.092657
-0.238766 -0.140014 0.103968
-0.268374 -0.161913 0.064430
-0.271940 -0.158709 0.058173
-0.270087 -0.148236 0.005318
-0.252661 -0.129941 -0.009573
-0.243442 -0.116581 -0.013283
-0.251444 -0.077291 -0.043163
-0.254799 -0.068343 -0.041146
-0.254251 -0.045550 -0.068520
-0.240516 -0.014771 -0.060431
-0.265446 -0.150209 0.065300
-0.271883 -0.155106 0.054659
-0.253198 -0.133270 0.006117
-0.240450 -0.120114 0.001952
-0.185106 -0.242397 0.018789
-0.174916 -0.243603 0.006230
-0.171485 -0.244792 0.017219
-0.253934 -0.035762 -0.064355
-0.168052 0.004191 0.004930
-0.153673 0.015220 -0.015416
-0.257582 -0.150878 0.081531
-0.263027 -0.150901 0.072429
-0.278808 -0.158241 0.036535
-0.271989 -0.150413 0.019445
-0.139049 -0.003467 0.053416
-0.122907 -0.000267 0.057821
-0.102591 0.003685 0.061425
-0.115881 -0.013635 0.096172
-0.152651 -0.038396 0.122356
-0.150254 -0.044830 0.133632
-0.133103 -0.030776 0.120844
-0.185296 -0.091327 0.141286
-0.220900 -0.115359 0.127430
-0.234604 -0.130331 0.112833
-0.253063 -0.141068 0.088617
-0.281065 -0.162413 0.039546
-0.275621 -0.154163 0.029585
-0.283800 -0.161382 0.015777
-0.233826 -0.104167 -0.003493
0.081560 0.035685 -0.341340
0.112358 0.044286 -0.356514
0.088308 0.021907 -0.355738
-0.233739 -0.013049 -0.038016
-0.168685 -0.064092 0.144285
-0.178036 -0.079757 0.144837
-0.162717 -0.245648 0.008817
-0.160912 -0.246551 0.021798
-0.246925 -0.084124 -0.021963
-0.257567 -0.056199 -0.041710
-0.256821 -0.044178 -0.038972
-0.251883 -0.029402 -0.054874
-0.201595 -0.098085 0.139511
-0.241742 -0.130398 0.106262
-0.256345 -0.141689 0.078366
-0.236517 -0.111485 -0.004075
-0.198292 -0.003066 -0.007331
-0.143623 0.004703 0.026581
-0.167222 -0.008621 0.041673
-0.259349 -0.139759 0.017081
-0.249913 -0.029650 -0.035904
-0.221466 -0.010886 -0.017893
-0.250586 -0.075250 -0.020276
-0.220204 -0.021752 0.012689
-0.240091 -0.027512 -0.010369
-0.245513 -0.129645 0.022490
-0.235907 -0.120865 0.015824
-0.234456 -0.097042 -0.004574
-0.224308 -0.098562 0.008194
-0.238035 -0.089231 -0.005204
-0.192136 -0.084611 0.144413
-0.214495 -0.104198 0.134243
-0.228708 -0.116921 0.121647
-0.260544 -0.144141 0.066332
-0.266462 -0.147168 0.043316
-0.268010 -0.149357 0.051513
-0.262607 -0.143646 0.035534
-0.144430 -0.118671 0.133321
-0.254306 -0.062615 -0.019964
-0.253438 -0.049689 -0.015685
-0.137687 -0.024203 0.105794
-0.168428 -0.048073 0.123554
-0.168128 -0.055895 0.137037
-0.254389 -0.137001 0.028783
-0.252350 -0.137021 0.049030
-0.245166 -0.131985 0.043178
-0.151271 0.032710 -0.161279
0.167812 0.068728 -0.002616
0.155940 0.059681 0.009380
0.173505 0.056289 0.018442
0.022064 -0.356178 -0.134749
0.001706 -0.341642 -0.140000
0.014374 -0.344962 -0.161306
-0.222091 -0.112075 0.021867
-0.229110 -0.119576 0.029043
-0.249451 -0.037933 -0.015091
-0.188092 -0.044146 0.088920
-0.174458 -0.032948 0.088694
-0.185215 -0.025579 0.062694
-0.179766 -0.064983 0.134883
-0.207350 -0.097422 0.130647
-0.219026 -0.107149 0.126188
-0.204378 -0.093085 0.137930
-0.248459 -0.134301 0.081164
-0.247662 -0.134082 0.071274
-0.239014 -0.127164 0.035593
-0.225313 -0.104375 0.008109
-0.216053 -0.104564 0.019514
-0.224906 -0.092867 0.009154
-0.241807 -0.080013 -0.003061
-0.233651 -0.120745 0.109563
-0.224938 -0.115255 0.108617
-0.237048 -0.125047 0.095536
-0.253849 -0.138308 0.058436
-0.242419 -0.131101 0.058493
-0.243039 -0.072338 0.001213
-0.193623 -0.083240 0.136076
-0.184984 -0.074159 0.143441
-0.202528 -0.039174 0.063799
-0.205876 -0.027386 0.042570
-0.219449 -0.035453 0.037343
-0.223160 -0.112139 0.116684
-0.214363 -0.106324 0.118573
-0.240792 -0.129959 0.052412
-0.229867 -0.123415 0.048666
-0.222803 -0.118162 0.039776
-0.230673 -0.112302 0.008169
-0.215771 -0.099367 0.016765
-0.226459 -0.086734 0.010524
-0.246300 -0.044065 0.000083
-0.234748 -0.038015 0.017054
-0.180629 -0.060857 0.122944
-0.176478 -0.045737 0.107963
-0.185199 -0.057030 0.106966
-0.185615 -0.070974 0.116374
-0.186658 -0.074918 0.128854
-0.192814 -0.012039 0.024176
-0.247044 -0.133179 0.093065
-0.225017 -0.118379 0.095631
-0.236713 -0.126418 0.084350
-0.236104 -0.127337 0.070358
-0.236008 -0.126739 0.077866
-0.224579 -0.120251 0.083888
-0.156961 -0.193791 -0.122220
-0.157342 -0.209331 -0.095062
-0.177507 -0.206489 -0.095478
-0.227183 -0.122838 0.061471
-0.242805 -0.062034 0.007738
-0.200769 -0.094811 0.125476
-0.213423 -0.109748 0.106720
-0.212257 -0.096575 0.019384
-0.257800 -0.160384 0.076622
-0.226422 -0.048757 0.036315
-0.208451 -0.102970 0.026120
-0.212155 -0.108829 0.030233
-0.202958 -0.101462 0.113798
0.066983 0.030690 0.043801
-0.211061 -0.111840 0.039696
-0.212596 -0.115175 0.052055
-0.202616 -0.106404 0.037555
-0.236072 -0.054538 0.021230
-0.187372 -0.068182 0.102907
-0.193872 -0.092812 0.117503
-0.226042 -0.078710 0.015236
-0.221978 -0.062947 0.034245
-0.192688 -0.086031 0.127155
-0.188493 -0.082642 0.119920
-0.211220 -0.111990 0.094957
-0.219021 -0.118739 0.073134
-0.201032 -0.100353 0.030263
-0.226456 -0.069401 0.022385
-0.192593 -0.064356 0.086306
-0.191078 -0.057545 0.093856
-0.193013 -0.098942 0.105083
-0.202842 -0.105595 0.102994
-0.208030 -0.112925 0.083265
0.129227 0.076492 -0.325793
0.139027 0.067680 -0.348245
0.107595 0.057845 -0.337435
-0.185516 -0.079552 0.107219
-0.207956 -0.091750 0.022253
-0.212807 -0.059823 0.050229
-0.195479 -0.105033 0.093391
-0.201905 -0.109286 0.046200
-0.192525 -0.104025 0.044384
-0.210439 -0.115265 0.064198
-0.196894 -0.109258 0.056534
-0.013573 -0.241497 -0.227884
-0.001477 -0.247685 -0.254311
-0.021717 -0.250366 -0.223405
-0.207932 -0.083130 0.025196
-0.189740 -0.072230 0.076661
-0.185697 -0.075832 0.091890
-0.203840 -0.112375 0.073482
-0.194611 -0.097658 0.033210
-0.193352 -0.108627 0.067146
-0.181036 -0.087434 0.093762
-0.186626 -0.090451 0.106746
-0.183998 -0.103797 0.056289
-0.183329 -0.096501 0.093794
-0.193523 -0.092100 0.031962
-0.196092 -0.084812 0.032196
-0.208626 -0.074669 0.032096
-0.205877 -0.069611 0.042731
-0.178219 -0.101999 0.066978
-0.184482 -0.098760 0.043519
-0.198322 -0.069284 0.058035
-0.183668 -0.091096 0.039984
-0.191761 -0.080888 0.040220
-0.180661 -0.082525 0.080118
-0.179657 -0.100061 0.080011
-0.191516 -0.106659 0.079304
-0.175795 -0.091522 0.080629
-0.017307 0.059015 -0.054671
-0.206816 -0.179150 -0.129021
-0.225768 -0.182477 -0.119191
-0.208197 -0.167562 -0.141395
-0.175076 -0.097362 0.054023
0.000410 0.066727 -0.071325
-0.265192 -0.162655 -0.091421
-0.277773 -0.174398 -0.073368
-0.171434 -0.095180 0.065398
-0.290447 -0.207399 -0.046838
-0.284355 -0.200534 -0.064729
-0.279270 -0.207917 -0.059156
-0.190471 -0.077071 0.049683
-0.176692 -0.087711 0.052590
-0.184019 -0.079566 0.064446
-0.055796 -0.098029 0.136274
-0.052481 -0.082638 0.132727
-0.083867 -0.100359 0.137074
-0.174649 -0.087397 0.066579
-0.258299 -0.148112 -0.094586
-0.243008 -0.156169 0.089973
-0.048614 0.013972 -0.278410
-0.028461 0.016036 -0.289518
-0.066463 -0.010263 -0.274748
-0.190986 -0.194087 -0.112748
-0.186767 -0.176985 -0.137536
-0.165200 -0.178756 -0.141467
-0.038189 -0.233396 0.109405
-0.044398 -0.221898 0.114919
-0.053934 -0.233923 0.105619
0.165727 -0.109894 0.054635
0.161300 -0.130714 0.064058
0.185611 -0.115876 0.063045
-0.283936 -0.209649 0.010104
-0.234043 -0.214180 0.056279
-0.227207 -0.223438 0.048115
-0.211938 -0.218247 0.068342
-0.014041 -0.313507 0.038093
-0.013265 -0.330926 -0.001112
0.001497 -0.332220 0.028277
-0.242940 -0.185631 -0.109229
-0.259295 -0.196595 -0.088976
-0.255252 -0.185140 -0.102645
-0.283230 -0.166263 -0.040313
-0.003294 0.081636 -0.214431
0.032514 0.093541 -0.200171
0.044430 0.095352 -0.215997
-0.052523 -0.201694 -0.155136
-0.076684 -0.208148 -0.130444
-0.060410 -0.191954 -0.160582
0.004674 -0.321327 0.054025
0.024476 -0.320912 0.078651
-0.002304 -0.303834 0.070759
-0.081802 -0.185745 0.136241
-0.093289 -0.176667 0.138032
-0.102965 -0.188779 0.134153
0.186317 0.125757 -0.147790
0.214640 0.126664 -0.129488
0.210176 0.130627 -0.158233
-0.051593 -0.214568 0.119138
-0.057430 -0.225434 0.111825
0.184009 -0.050887 0.056387
0.181186 -0.032895 0.060611
0.168403 -0.050191 0.059058
-0.054510 -0.291866 -0.089954
-0.051568 -0.296240 -0.073560
-0.063400 -0.283676 -0.059158
0.088860 0.004259 -0.366201
0.110805 0.002692 -0.388678
0.087883 -0.013322 -0.372522
0.016354 -0.133355 -0.275369
0.014314 -0.151103 -0.259111
-0.012660 -0.154608 -0.232203
-0.073242 0.040368 -0.243634
-0.030587 0.054631 -0.257717
-0.061840 0.031449 -0.260537
-0.195554 -0.210390 0.086915
-0.218171 -0.205978 0.075724
-0.159896 -0.018683 0.073487
-0.158534 -0.031879 0.104053
0.105864 -0.016713 0.087957
0.068513 -0.037914 0.105306
0.087085 -0.042405 0.099204
-0.151271 -0.176245 0.124186
-0.177120 -0.174836 0.113024
-0.166213 -0.186925 0.114804
0.307013 0.150278 -0.183977
0.330756 0.159027 -0.185762
0.313390 0.156522 -0.215544
0.175888 0.067193 -0.387235
0.143098 0.055072 -0.371384
0.164606 0.073373 -0.363554
-0.130863 -0.185524 -0.142062
-0.142763 -0.200173 -0.115607
-0.272044 -0.208036 0.028499
-0.253931 -0.223659 0.015534
-0.236128 -0.226720 0.030514
-0.248508 -0.219391 0.034872
-0.227784 -0.196631 0.075210
-0.240099 -0.204088 0.061330
-0.074264 -0.183919 -0.164672
-0.045518 -0.170628 -0.194488
-0.236458 -0.230769 0.000064
-0.239448 -0.228938 0.014979
-0.252584 -0.226166 -0.000739
0.067115 -0.264293 0.141205
0.081277 -0.281323 0.150790
0.093482 -0.259851 0.155078
0.142115 -0.108226 -0.426982
0.132122 -0.128786 -0.416713
0.115542 -0.122903 -0.399800
-0.053388 -0.293487 -0.026737
-0.058264 -0.288422 -0.044265
-0.050009 -0.298378 -0.053220
-0.023957 -0.323489 -0.127024
-0.027853 -0.316265 -0.142481
-0.010768 -0.329058 -0.151928
-0.172930 -0.208425 0.100984
-0.178767 -0.218723 0.088680
-0.269879 -0.193627 -0.084901
0.134576 0.019332 -0.402031
0.153652 0.042029 -0.399603
-0.152091 -0.245868 -0.002401
-0.150222 -0.243273 -0.015805
-0.141045 -0.245737 -0.016510
0.152493 -0.005681 -0.433364
0.178278 0.016262 -0.440654
0.122695 -0.365885 -0.148883
0.139012 -0.366000 -0.110168
0.104421 -0.374682 -0.115902
-0.023851 -0.137020 0.133361
-0.030829 -0.124485 0.135312
-0.056637 -0.145921 0.139318
-0.178715 -0.239481 0.049626
-0.171253 -0.235560 0.066264
-0.186910 -0.232666 0.061681
-0.026878 -0.326503 -0.064983
-0.028130 -0.322903 -0.100942
-0.012967 -0.336919 -0.098533
0.150705 -0.351469 0.071879
0.158606 -0.357327 0.033400
0.184045 -0.340967 0.074504
0.117660 -0.363761 0.040111
0.122147 -0.370554 0.001711
0.156127 -0.362717 -0.071442
0.129685 -0.372058 -0.041988
0.124054 -0.373392 -0.081699
-0.202895 -0.106176 -0.170584
-0.182056 -0.102269 -0.192402
-0.208778 -0.122957 -0.164581
0.153582 0.018396 0.057988
0.168450 0.013310 0.059635
0.168956 0.031343 0.046960
0.034492 -0.356087 -0.163714
0.033654 -0.346410 -0.189709
0.123326 -0.352440 0.085287
0.072625 -0.374644 -0.117877
0.085094 -0.377606 -0.082437
0.019528 -0.112041 -0.292729
-0.002968 -0.132080 -0.259538
0.003171 -0.315903 -0.204411
0.022691 -0.314384 -0.234462
0.029717 -0.328266 -0.219665
0.154105 -0.084641 -0.436832
0.155708 -0.056143 -0.440657
0.167124 -0.061410 -0.444214
0.087583 -0.376165 -0.033196
0.083319 -0.370756 0.004723
0.049503 -0.370518 -0.031781
0.074122 -0.256517 -0.367170
0.051480 -0.255359 -0.338489
0.077915 -0.243808 -0.373608
0.133482 -0.340145 0.127045
0.100451 -0.349321 0.094066
0.088300 -0.361743 0.045726
0.050480 -0.371765 -0.068513
0.379438 0.034191 0.080427
0.364308 0.019382 0.088464
0.366387 -0.006856 0.109903
0.119613 0.110137 -0.237398
0.147644 0.120292 -0.212814
0.153919 0.118821 -0.230888
-0.297908 -0.204824 -0.034030
-0.301637 -0.200883 -0.019022
0.180229 -0.154696 0.092712
0.158352 -0.156234 0.084959
0.167259 -0.172547 0.106312
-0.206830 -0.001944 -0.138741
0.339964 -0.049808 0.134227
0.339611 -0.073317 0.145664
0.351910 -0.044074 0.131684
0.057227 -0.364468 0.013640
0.027758 -0.360665 -0.012893
-0.020650 -0.299079 -0.199050
-0.004654 -0.298822 -0.223816
-0.013552 -0.307819 -0.197086
0.099663 -0.158897 -0.371247
0.093221 -0.178185 -0.361011
0.074767 -0.168784 -0.328621
-0.017601 0.073713 -0.228463
0.007593 0.080462 -0.234156
-0.035895 0.062421 -0.239723
-0.204676 -0.228245 0.057818
-0.192790 -0.224370 0.073070
0.012598 -0.073947 -0.304071
0.015393 -0.054470 -0.311741
0.040515 -0.045245 -0.332543
-0.090440 0.057137 -0.177428
-0.075741 0.061433 -0.189935
-0.121536 0.044036 -0.180160
0.000481 -0.344435 -0.121056
0.010891 -0.353977 -0.097111
0.063774 -0.189115 -0.310227
-0.045720 -0.276996 -0.175738
-0.031862 -0.285088 -0.195016
-0.047425 -0.283508 -0.162104
0.048471 -0.267722 -0.332093
0.051051 -0.108201 -0.326972
0.038312 -0.132127 -0.299323
-0.170495 -0.075752 -0.202618
0.067125 -0.354873 0.057793
-0.019276 -0.292507 -0.210358
0.261913 -0.192542 0.189286
0.281205 -0.186356 0.188861
0.268202 -0.171595 0.178251
-0.225647 -0.185185 0.082491
-0.029608 -0.298253 0.038882
-0.018780 -0.297932 0.058005
-0.031577 -0.300787 -0.173606
-0.013966 -0.284593 -0.227012
0.303736 0.136576 -0.124605
0.289755 0.125875 -0.098265
0.316934 0.127726 -0.089004
0.288806 0.132159 -0.343465
0.292749 0.142621 -0.320476
0.312957 0.149689 -0.302884
0.377755 0.072685 0.040056
0.366905 0.046533 0.063317